<?xml version="1.0" encoding="ISO-8859-1"?>
<modeling>
 <generator>
  <i name="program" type="string">vasp </i>
  <i name="version" type="string">5.4.4.18Apr17-6-g9f103f2a35  </i>
  <i name="subversion" type="string">(build Feb 25 2019 10:51:38) complex            parallel </i>
  <i name="platform" type="string">LinuxIFC </i>
  <i name="date" type="string">2023 03 15 </i>
  <i name="time" type="string">10:09:23 </i>
 </generator>
 <incar>
  <i type="string" name="PREC">normal</i>
  <i type="string" name="ALGO"> Fast</i>
  <i type="int" name="ISPIN">     2</i>
  <i type="int" name="ICHARG">     2</i>
  <i type="int" name="NELM">    60</i>
  <i type="int" name="NELMIN">     4</i>
  <i type="int" name="IBRION">     2</i>
  <i name="EDIFF">      0.00001000</i>
  <i name="EDIFFG">     -0.05000000</i>
  <i type="int" name="NSW">   500</i>
  <i type="int" name="ISIF">     2</i>
  <i name="ENCUT">    500.00000000</i>
  <v name="MAGMOM">      0.60000000      0.60000000      0.60000000      0.60000000      0.60000000      0.60000000      0.60000000      0.60000000      0.60000000      0.60000000      0.60000000      0.60000000      0.60000000      0.60000000      0.60000000      0.60000000      0.60000000      0.60000000      0.60000000      0.60000000
      0.60000000      0.60000000      0.60000000      0.60000000      0.60000000      0.60000000      0.60000000      0.60000000      0.60000000      0.60000000      0.60000000      0.60000000      0.60000000      0.60000000      0.60000000      0.60000000      0.60000000      0.60000000      0.60000000      0.60000000
      0.60000000      0.60000000      0.60000000      0.60000000      0.60000000      0.60000000      0.60000000      0.60000000      0.60000000      0.60000000      0.60000000      0.60000000      0.60000000      0.60000000      0.60000000      0.60000000      0.60000000      0.60000000      0.60000000      0.60000000
      0.60000000      0.60000000      0.60000000      0.60000000      0.60000000      0.60000000      0.60000000      0.60000000      0.60000000      0.60000000      0.60000000      0.60000000      0.60000000      0.60000000      0.60000000      0.60000000      0.60000000      0.60000000      0.60000000      0.60000000
      0.60000000      0.60000000      0.60000000      0.60000000      0.60000000      0.60000000      0.60000000      0.60000000      0.60000000      0.60000000      0.60000000      0.60000000      0.60000000      0.60000000      0.60000000      0.60000000      0.60000000      0.60000000</v>
  <i type="string" name="LREAL"> Auto</i>
  <i type="int" name="ISMEAR">     0</i>
  <i name="SIGMA">      0.05000000</i>
  <i type="logical" name="LWAVE"> F  </i>
  <i type="logical" name="LCHARG"> F  </i>
  <v type="int" name="KPOINT_BSE">    -1     0     0     0</v>
  <i type="int" name="NELM">    60</i>
  <i type="string" name="GGA"> Rp</i>
  <i type="logical" name="LDIPOL"> T  </i>
  <i type="int" name="IDIPOL">     3</i>
  <v name="DIPOL">      0.37555500      0.26665008      0.25114130</v>
 </incar>
 <structure name="primitive_cell" >
  <crystal>
   <varray name="basis" >
    <v>      12.80853200       0.00000000       0.00000000 </v>
    <v>       0.00000000       6.47024300       0.00000000 </v>
    <v>       0.00000000       0.00000000      25.88097200 </v>
   </varray>
   <i name="volume">   2144.86781344 </i>
   <varray name="rec_basis" >
    <v>       0.07807296       0.00000000       0.00000000 </v>
    <v>       0.00000000       0.15455370       0.00000000 </v>
    <v>       0.00000000       0.00000000       0.03863843 </v>
   </varray>
  </crystal>
  <varray name="positions" >
   <v>       0.12500000      -0.50000000       0.18750000 </v>
   <v>       0.12500000      -0.19156000       0.18750000 </v>
   <v>       0.12500000       0.19156000       0.18750000 </v>
   <v>       0.00000000      -0.50000000       0.13961000 </v>
   <v>       0.25000000      -0.50000000       0.13961000 </v>
   <v>       0.00000000      -0.50000000       0.23539000 </v>
   <v>       0.25000000      -0.50000000       0.23539000 </v>
   <v>       0.37500000      -0.50000000       0.18750000 </v>
   <v>      -0.12500000      -0.50000000       0.18750000 </v>
   <v>       0.12500000       0.30844000       0.06250000 </v>
   <v>       0.12500000      -0.30844000       0.06250000 </v>
   <v>       0.12474673       0.30816948       0.31254897 </v>
   <v>       0.12474673      -0.30816948       0.31254897 </v>
   <v>       0.00000000      -0.50000000       0.06250000 </v>
   <v>       0.25000000      -0.50000000       0.06250000 </v>
   <v>       0.00000000       0.00000000       0.18750000 </v>
   <v>       0.25000000       0.00000000       0.18750000 </v>
   <v>       0.24997861      -0.50000000       0.31274725 </v>
   <v>      -0.00014593      -0.50000000       0.31288845 </v>
   <v>       0.37500000      -0.19156000       0.18750000 </v>
   <v>       0.37500000       0.19156000       0.18750000 </v>
   <v>      -0.12500000      -0.19156000       0.18750000 </v>
   <v>      -0.12500000       0.19156000       0.18750000 </v>
   <v>       0.00000000       0.00000000       0.11039000 </v>
   <v>       0.25000000       0.00000000       0.11039000 </v>
   <v>       0.00049693       0.00000000       0.26500584 </v>
   <v>       0.25002815       0.00000000       0.26511695 </v>
   <v>       0.12500000       0.00000000       0.06250000 </v>
   <v>       0.12462232       0.00000000       0.31314365 </v>
   <v>       0.37500000       0.30844000       0.06250000 </v>
   <v>       0.37500000      -0.30844000       0.06250000 </v>
   <v>      -0.12500000       0.30844000       0.06250000 </v>
   <v>      -0.12500000      -0.30844000       0.06250000 </v>
   <v>      -0.12519714       0.30779599       0.31252126 </v>
   <v>      -0.12519714      -0.30779599       0.31252126 </v>
   <v>       0.37526518       0.30820828       0.31256152 </v>
   <v>       0.37526518      -0.30820828       0.31256152 </v>
   <v>      -0.50000000      -0.50000000       0.13961000 </v>
   <v>      -0.25000000      -0.50000000       0.13961000 </v>
   <v>      -0.50000000      -0.50000000       0.23539000 </v>
   <v>      -0.25000000      -0.50000000       0.23539000 </v>
   <v>       0.24997610      -0.50000000       0.38894845 </v>
   <v>       0.00148799      -0.50000000       0.38938098 </v>
   <v>       0.37500000       0.00000000       0.06250000 </v>
   <v>      -0.12500000       0.00000000       0.06250000 </v>
   <v>       0.37537603       0.00000000       0.31315361 </v>
   <v>      -0.12721679       0.00000000       0.31278944 </v>
   <v>       0.00000000       0.00000000       0.01461000 </v>
   <v>       0.25000000       0.00000000       0.01461000 </v>
   <v>       0.24999750       0.00000000       0.36160611 </v>
   <v>      -0.00119912       0.00000000       0.36147633 </v>
   <v>      -0.50000000      -0.50000000       0.06250000 </v>
   <v>      -0.25000000      -0.50000000       0.06250000 </v>
   <v>      -0.50000000       0.00000000       0.18750000 </v>
   <v>      -0.25000000       0.00000000       0.18750000 </v>
   <v>      -0.49985068      -0.50000000       0.31287105 </v>
   <v>      -0.24999962      -0.50000000       0.31332517 </v>
   <v>      -0.25001078       0.00000000       0.26415836 </v>
   <v>       0.49953597       0.00000000       0.26501145 </v>
   <v>      -0.50000000       0.00000000       0.11039000 </v>
   <v>      -0.25000000       0.00000000       0.11039000 </v>
   <v>      -0.37500000      -0.50000000       0.18750000 </v>
   <v>       0.12609240      -0.50000000       0.43770027 </v>
   <v>       0.12446849      -0.19210181       0.43448736 </v>
   <v>       0.12446849       0.19210181       0.43448736 </v>
   <v>      -0.37500000      -0.19156000       0.18750000 </v>
   <v>      -0.37500000       0.19156000       0.18750000 </v>
   <v>       0.49854268      -0.50000000       0.38940666 </v>
   <v>      -0.25002592      -0.50000000       0.38998157 </v>
   <v>       0.37391343      -0.50000000       0.43768410 </v>
   <v>      -0.12330689      -0.50000000       0.43868946 </v>
   <v>      -0.37479827       0.30778583       0.31250671 </v>
   <v>      -0.37479827      -0.30778583       0.31250671 </v>
   <v>      -0.37500000       0.30844000       0.06250000 </v>
   <v>      -0.37500000      -0.30844000       0.06250000 </v>
   <v>      -0.25000015       0.00000000       0.35810869 </v>
   <v>      -0.50000000       0.00000000       0.01461000 </v>
   <v>      -0.25000000       0.00000000       0.01461000 </v>
   <v>      -0.49877680       0.00000000       0.36151299 </v>
   <v>       0.37555825      -0.19210729       0.43451314 </v>
   <v>       0.37555825       0.19210729       0.43451314 </v>
   <v>      -0.12007180      -0.19905387       0.43710269 </v>
   <v>      -0.12007180       0.19905387       0.43710269 </v>
   <v>       0.25001460       0.00000000       0.44022059 </v>
   <v>      -0.00798694       0.00000000       0.44197490 </v>
   <v>       0.25002952      -0.50000000       0.48326157 </v>
   <v>       0.00311477      -0.50000000       0.48396029 </v>
   <v>      -0.37278415       0.00000000       0.31280077 </v>
   <v>      -0.37500000       0.00000000       0.06250000 </v>
   <v>      -0.49197935       0.00000000       0.44200084 </v>
   <v>       0.49687409      -0.50000000       0.48395812 </v>
   <v>      -0.24990781      -0.50000000       0.48385729 </v>
   <v>       0.01167042       0.00000000      -0.49044673 </v>
   <v>       0.25000550       0.00000000      -0.49121063 </v>
   <v>      -0.37671486      -0.50000000       0.43868640 </v>
   <v>      -0.37979895       0.19901578       0.43716985 </v>
   <v>      -0.37979895      -0.19901578       0.43716985 </v>
   <v>       0.48837989       0.00000000      -0.49043978 </v>
  </varray>
 </structure>
 <varray name="primitive_index" >
  <v type="int" >        1 </v>
  <v type="int" >       21 </v>
  <v type="int" >       29 </v>
  <v type="int" >       17 </v>
  <v type="int" >       18 </v>
  <v type="int" >       25 </v>
  <v type="int" >       26 </v>
  <v type="int" >        2 </v>
  <v type="int" >       52 </v>
  <v type="int" >       23 </v>
  <v type="int" >       31 </v>
  <v type="int" >       39 </v>
  <v type="int" >       47 </v>
  <v type="int" >        5 </v>
  <v type="int" >        6 </v>
  <v type="int" >        7 </v>
  <v type="int" >        8 </v>
  <v type="int" >       14 </v>
  <v type="int" >       13 </v>
  <v type="int" >       22 </v>
  <v type="int" >       30 </v>
  <v type="int" >       71 </v>
  <v type="int" >       79 </v>
  <v type="int" >       27 </v>
  <v type="int" >       28 </v>
  <v type="int" >       35 </v>
  <v type="int" >       36 </v>
  <v type="int" >        3 </v>
  <v type="int" >       11 </v>
  <v type="int" >       24 </v>
  <v type="int" >       32 </v>
  <v type="int" >       73 </v>
  <v type="int" >       81 </v>
  <v type="int" >       89 </v>
  <v type="int" >       97 </v>
  <v type="int" >       40 </v>
  <v type="int" >       48 </v>
  <v type="int" >       66 </v>
  <v type="int" >       67 </v>
  <v type="int" >       74 </v>
  <v type="int" >       75 </v>
  <v type="int" >       34 </v>
  <v type="int" >       33 </v>
  <v type="int" >        4 </v>
  <v type="int" >       54 </v>
  <v type="int" >       12 </v>
  <v type="int" >       62 </v>
  <v type="int" >       19 </v>
  <v type="int" >       20 </v>
  <v type="int" >       44 </v>
  <v type="int" >       43 </v>
  <v type="int" >       55 </v>
  <v type="int" >       56 </v>
  <v type="int" >       57 </v>
  <v type="int" >       58 </v>
  <v type="int" >       63 </v>
  <v type="int" >       64 </v>
  <v type="int" >       85 </v>
  <v type="int" >       84 </v>
  <v type="int" >       76 </v>
  <v type="int" >       77 </v>
  <v type="int" >       51 </v>
  <v type="int" >        9 </v>
  <v type="int" >       37 </v>
  <v type="int" >       45 </v>
  <v type="int" >       70 </v>
  <v type="int" >       78 </v>
  <v type="int" >       82 </v>
  <v type="int" >       83 </v>
  <v type="int" >       10 </v>
  <v type="int" >       60 </v>
  <v type="int" >       88 </v>
  <v type="int" >       96 </v>
  <v type="int" >       72 </v>
  <v type="int" >       80 </v>
  <v type="int" >       93 </v>
  <v type="int" >       68 </v>
  <v type="int" >       69 </v>
  <v type="int" >       92 </v>
  <v type="int" >       38 </v>
  <v type="int" >       46 </v>
  <v type="int" >       87 </v>
  <v type="int" >       95 </v>
  <v type="int" >       16 </v>
  <v type="int" >       15 </v>
  <v type="int" >       42 </v>
  <v type="int" >       41 </v>
  <v type="int" >       61 </v>
  <v type="int" >       53 </v>
  <v type="int" >       65 </v>
  <v type="int" >       90 </v>
  <v type="int" >       91 </v>
  <v type="int" >       50 </v>
  <v type="int" >       49 </v>
  <v type="int" >       59 </v>
  <v type="int" >       94 </v>
  <v type="int" >       86 </v>
  <v type="int" >       98 </v>
 </varray>
 <kpoints>
  <generation param="Gamma">
   <v type="int" name="divisions">       3        3        1 </v>
   <v name="usershift">      0.00000000       0.00000000       0.00000000 </v>
   <v name="genvec1">      0.33333333       0.00000000       0.00000000 </v>
   <v name="genvec2">      0.00000000       0.33333333       0.00000000 </v>
   <v name="genvec3">      0.00000000       0.00000000       1.00000000 </v>
   <v name="shift">      0.00000000       0.00000000       0.00000000 </v>
  </generation>
  <varray name="kpointlist" >
   <v>       0.00000000       0.00000000       0.00000000 </v>
   <v>       0.33333333       0.00000000       0.00000000 </v>
   <v>       0.00000000       0.33333333       0.00000000 </v>
   <v>       0.33333333       0.33333333       0.00000000 </v>
  </varray>
  <varray name="weights" >
   <v>       0.11111111 </v>
   <v>       0.22222222 </v>
   <v>       0.22222222 </v>
   <v>       0.44444444 </v>
  </varray>
 </kpoints>
 <parameters>
  <separator name="general" >
   <i type="string" name="SYSTEM">unknown system</i>
   <i type="logical" name="LCOMPAT"> F  </i>
  </separator>
  <separator name="electronic" >
   <i type="string" name="PREC">normal</i>
   <i name="ENMAX">    500.00000000</i>
   <i name="ENAUG">    605.39200000</i>
   <i name="EDIFF">      0.00001000</i>
   <i type="int" name="IALGO">    68</i>
   <i type="int" name="IWAVPR">    11</i>
   <i type="int" name="NBANDS">   440</i>
   <i name="NELECT">    681.00000000</i>
   <i type="int" name="TURBO">     0</i>
   <i type="int" name="IRESTART">     0</i>
   <i type="int" name="NREBOOT">     0</i>
   <i type="int" name="NMIN">     0</i>
   <i name="EREF">      0.00000000</i>
   <separator name="electronic smearing" >
    <i type="int" name="ISMEAR">     0</i>
    <i name="SIGMA">      0.05000000</i>
    <i name="KSPACING">      0.50000000</i>
    <i type="logical" name="KGAMMA"> T  </i>
   </separator>
   <separator name="electronic projectors" >
    <i type="logical" name="LREAL"> T  </i>
    <v name="ROPT">     -0.00050000     -0.00050000     -0.00050000     -0.00050000</v>
    <i type="int" name="LMAXPAW">  -100</i>
    <i type="int" name="LMAXMIX">     2</i>
    <i type="logical" name="NLSPLINE"> F  </i>
   </separator>
   <separator name="electronic startup" >
    <i type="int" name="ISTART">     0</i>
    <i type="int" name="ICHARG">     2</i>
    <i type="int" name="INIWAV">     1</i>
   </separator>
   <separator name="electronic spin" >
    <i type="int" name="ISPIN">     2</i>
    <i type="logical" name="LNONCOLLINEAR"> F  </i>
    <v name="MAGMOM">      0.60000000      0.60000000      0.60000000      0.60000000      0.60000000      0.60000000      0.60000000      0.60000000      0.60000000      0.60000000      0.60000000      0.60000000      0.60000000      0.60000000      0.60000000      0.60000000      0.60000000      0.60000000      0.60000000      0.60000000
      0.60000000      0.60000000      0.60000000      0.60000000      0.60000000      0.60000000      0.60000000      0.60000000      0.60000000      0.60000000      0.60000000      0.60000000      0.60000000      0.60000000      0.60000000      0.60000000      0.60000000      0.60000000      0.60000000      0.60000000
      0.60000000      0.60000000      0.60000000      0.60000000      0.60000000      0.60000000      0.60000000      0.60000000      0.60000000      0.60000000      0.60000000      0.60000000      0.60000000      0.60000000      0.60000000      0.60000000      0.60000000      0.60000000      0.60000000      0.60000000
      0.60000000      0.60000000      0.60000000      0.60000000      0.60000000      0.60000000      0.60000000      0.60000000      0.60000000      0.60000000      0.60000000      0.60000000      0.60000000      0.60000000      0.60000000      0.60000000      0.60000000      0.60000000      0.60000000      0.60000000
      0.60000000      0.60000000      0.60000000      0.60000000      0.60000000      0.60000000      0.60000000      0.60000000      0.60000000      0.60000000      0.60000000      0.60000000      0.60000000      0.60000000      0.60000000      0.60000000      0.60000000      0.60000000</v>
    <i name="NUPDOWN">     -1.00000000</i>
    <i type="logical" name="LSORBIT"> F  </i>
    <v name="SAXIS">      0.00000000      0.00000000      1.00000000</v>
    <i type="logical" name="LSPIRAL"> F  </i>
    <v name="QSPIRAL">      0.00000000      0.00000000      0.00000000</v>
    <i type="logical" name="LZEROZ"> F  </i>
   </separator>
   <separator name="electronic exchange-correlation" >
    <i type="logical" name="LASPH"> F  </i>
    <i type="logical" name="LMETAGGA"> F  </i>
   </separator>
   <separator name="electronic convergence" >
    <i type="int" name="NELM">    60</i>
    <i type="int" name="NELMDL">     0</i>
    <i type="int" name="NELMIN">     4</i>
    <i name="ENINI">    500.00000000</i>
    <separator name="electronic convergence detail" >
     <i type="logical" name="LDIAG"> T  </i>
     <i type="logical" name="LSUBROT"> F  </i>
     <i name="WEIMIN">      0.00100000</i>
     <i name="EBREAK">      0.00000001</i>
     <i name="DEPER">      0.30000000</i>
     <i type="int" name="NRMM">     4</i>
     <i name="TIME">      0.40000000</i>
    </separator>
   </separator>
   <separator name="electronic mixer" >
    <i name="AMIX">      0.40000000</i>
    <i name="BMIX">      1.00000000</i>
    <i name="AMIN">      0.10000000</i>
    <i name="AMIX_MAG">      1.60000000</i>
    <i name="BMIX_MAG">      1.00000000</i>
    <separator name="electronic mixer details" >
     <i type="int" name="IMIX">     4</i>
     <i type="logical" name="MIXFIRST"> F  </i>
     <i type="int" name="MAXMIX">   -45</i>
     <i name="WC">    100.00000000</i>
     <i type="int" name="INIMIX">     1</i>
     <i type="int" name="MIXPRE">     1</i>
     <i type="int" name="MREMOVE">     5</i>
    </separator>
   </separator>
   <separator name="electronic dipolcorrection" >
    <i type="logical" name="LDIPOL"> T  </i>
    <i type="logical" name="LMONO"> F  </i>
    <i type="int" name="IDIPOL">     3</i>
    <i name="EPSILON">      1.00000000</i>
    <v name="DIPOL">      0.37555500      0.26665008      0.25114130</v>
    <i name="EFIELD">      0.00000000</i>
   </separator>
  </separator>
  <separator name="grids" >
   <i type="int" name="NGX">    70</i>
   <i type="int" name="NGY">    36</i>
   <i type="int" name="NGZ">   144</i>
   <i type="int" name="NGXF">   140</i>
   <i type="int" name="NGYF">    72</i>
   <i type="int" name="NGZF">   288</i>
   <i type="logical" name="ADDGRID"> F  </i>
  </separator>
  <separator name="ionic" >
   <i type="int" name="NSW">   500</i>
   <i type="int" name="IBRION">     2</i>
   <i type="int" name="MDALGO">     0</i>
   <i type="int" name="ISIF">     2</i>
   <i name="PSTRESS">      0.00000000</i>
   <i name="EDIFFG">     -0.05000000</i>
   <i type="int" name="NFREE">     1</i>
   <i name="POTIM">      0.50000000</i>
   <i name="SMASS">     -3.00000000</i>
   <i name="SCALEE">      1.00000000</i>
  </separator>
  <separator name="ionic md" >
   <i name="TEBEG">      0.00010000</i>
   <i name="TEEND">      0.00010000</i>
   <i type="int" name="NBLOCK">     1</i>
   <i type="int" name="KBLOCK">   500</i>
   <i type="int" name="NPACO">   256</i>
   <i name="APACO">     16.00000000</i>
  </separator>
  <separator name="symmetry" >
   <i type="int" name="ISYM">     2</i>
   <i name="SYMPREC">      0.00001000</i>
  </separator>
  <separator name="dos" >
   <i type="int" name="LORBIT">     0</i>
   <v name="RWIGS">     -1.00000000     -1.00000000     -1.00000000     -1.00000000</v>
   <i type="int" name="NEDOS">   301</i>
   <i name="EMIN">     10.00000000</i>
   <i name="EMAX">    -10.00000000</i>
   <i name="EFERMI">      0.00000000</i>
  </separator>
  <separator name="writing" >
   <i type="int" name="NWRITE">     2</i>
   <i type="logical" name="LWAVE"> F  </i>
   <i type="logical" name="LDOWNSAMPLE"> F  </i>
   <i type="logical" name="LCHARG"> F  </i>
   <i type="logical" name="LPARD"> F  </i>
   <i type="logical" name="LVTOT"> F  </i>
   <i type="logical" name="LVHAR"> F  </i>
   <i type="logical" name="LELF"> F  </i>
   <i type="logical" name="LOPTICS"> F  </i>
   <v name="STM">      0.00000000      0.00000000      0.00000000      0.00000000      0.00000000      0.00000000      0.00000000</v>
  </separator>
  <separator name="performance" >
   <i type="int" name="NPAR">     4</i>
   <i type="int" name="NSIM">     4</i>
   <i type="int" name="NBLK">    -1</i>
   <i type="logical" name="LPLANE"> T  </i>
   <i type="logical" name="LSCALAPACK"> T  </i>
   <i type="logical" name="LSCAAWARE"> F  </i>
   <i type="logical" name="LSCALU"> F  </i>
   <i type="logical" name="LASYNC"> F  </i>
   <i type="logical" name="LORBITALREAL"> F  </i>
  </separator>
  <separator name="miscellaneous" >
   <i type="int" name="IDIOT">     3</i>
   <i type="int" name="ISPECIAL">     0</i>
   <i type="logical" name="LMUSIC"> F  </i>
   <v name="POMASS">    192.22000000     16.00000000    192.22000000     16.00000000</v>
   <v name="DARWINR">      0.00000000      0.00000000      0.00000000      0.00000000</v>
   <v name="DARWINV">      1.00000000      1.00000000      1.00000000      1.00000000</v>
   <i type="logical" name="LCORR"> T  </i>
  </separator>
  <i type="logical" name="GGA_COMPAT"> T  </i>
  <i type="logical" name="LBERRY"> F  </i>
  <i type="int" name="ICORELEVEL">     0</i>
  <i type="logical" name="LDAU"> F  </i>
  <i type="int" name="I_CONSTRAINED_M">     0</i>
  <separator name="electronic exchange-correlation" >
   <i type="string" name="GGA">RP</i>
   <i type="int" name="VOSKOWN">     0</i>
   <i type="logical" name="LHFCALC"> F  </i>
   <i type="string" name="PRECFOCK"></i>
   <i type="logical" name="LSYMGRAD"> F  </i>
   <i type="logical" name="LHFONE"> F  </i>
   <i type="logical" name="LRHFCALC"> F  </i>
   <i type="logical" name="LTHOMAS"> F  </i>
   <i type="logical" name="LMODELHF"> F  </i>
   <i name="ENCUT4O">     -1.00000000</i>
   <i type="int" name="EXXOEP">     0</i>
   <i type="int" name="FOURORBIT">     0</i>
   <i name="AEXX">      0.00000000</i>
   <i name="HFALPHA">      0.00000000</i>
   <i name="MCALPHA">      0.00000000</i>
   <i name="ALDAX">      1.00000000</i>
   <i name="AGGAX">      1.00000000</i>
   <i name="ALDAC">      1.00000000</i>
   <i name="AGGAC">      1.00000000</i>
   <i type="int" name="NKREDX">     1</i>
   <i type="int" name="NKREDY">     1</i>
   <i type="int" name="NKREDZ">     1</i>
   <i type="logical" name="SHIFTRED"> F  </i>
   <i type="logical" name="ODDONLY"> F  </i>
   <i type="logical" name="EVENONLY"> F  </i>
   <i type="int" name="LMAXFOCK">     0</i>
   <i type="int" name="NMAXFOCKAE">     0</i>
   <i type="logical" name="LFOCKAEDFT"> F  </i>
   <i name="HFSCREEN">      0.00000000</i>
   <i name="HFSCREENC">      0.00000000</i>
   <i type="int" name="NBANDSGWLOW">     0</i>
  </separator>
  <separator name="vdW DFT" >
   <i type="logical" name="LUSE_VDW"> F  </i>
   <i name="Zab_VDW">     -0.84910000</i>
   <i name="PARAM1">      0.12340000</i>
   <i name="PARAM2">      1.00000000</i>
   <i name="PARAM3">      0.00000000</i>
  </separator>
  <separator name="model GW" >
   <i type="int" name="MODEL_GW">     0</i>
   <i name="MODEL_EPS0">     13.13184376</i>
   <i name="MODEL_ALPHA">      1.00000000</i>
  </separator>
  <separator name="linear response parameters" >
   <i type="logical" name="LEPSILON"> F  </i>
   <i type="logical" name="LRPA"> F  </i>
   <i type="logical" name="LNABLA"> F  </i>
   <i type="logical" name="LVEL"> F  </i>
   <i type="int" name="KINTER">     0</i>
   <i name="CSHIFT">      0.10000000</i>
   <i name="OMEGAMAX">     -1.00000000</i>
   <i name="DEG_THRESHOLD">      0.00200000</i>
   <i name="RTIME">     -0.10000000</i>
   <i name="WPLASMAI">      0.00000000</i>
   <v name="DFIELD">      0.00000000      0.00000000      0.00000000</v>
   <v name="WPLASMA">      0.00000000      0.00000000      0.00000000      0.00000000      0.00000000      0.00000000      0.00000000      0.00000000      0.00000000</v>
  </separator>
  <separator name="orbital magnetization" >
   <i type="logical" name="NUCIND"> F  </i>
   <v name="MAGPOS">      0.00000000      0.00000000      0.00000000</v>
   <i type="logical" name="LNICSALL"> T  </i>
   <i type="logical" name="ORBITALMAG"> F  </i>
   <i type="logical" name="LMAGBLOCH"> F  </i>
   <i type="logical" name="LCHIMAG"> F  </i>
   <i type="logical" name="LGAUGE"> T  </i>
   <i type="int" name="MAGATOM">     0</i>
   <v name="MAGDIPOL">      0.00000000      0.00000000      0.00000000</v>
   <v name="AVECCONST">      0.00000000      0.00000000      0.00000000</v>
  </separator>
  <separator name="response functions" >
   <i type="logical" name="LADDER"> F  </i>
   <i type="logical" name="LRPAFORCE"> F  </i>
   <i type="logical" name="LFXC"> F  </i>
   <i type="logical" name="LHARTREE"> T  </i>
   <i type="int" name="IBSE">     0</i>
   <v type="int" name="KPOINT">    -1     0     0     0</v>
   <i type="logical" name="LTCTE"> F  </i>
   <i type="logical" name="LTETE"> F  </i>
   <i type="logical" name="LTRIPLET"> F  </i>
   <i type="logical" name="LFXCEPS"> F  </i>
   <i type="logical" name="LFXHEG"> F  </i>
   <i type="int" name="NATURALO">     2</i>
   <i type="logical" name="L2ORDER"> F  </i>
   <i type="logical" name="LMP2LT"> F  </i>
   <i type="logical" name="LUSEW"> F  </i>
   <i name="ENCUTGW">     -2.00000000</i>
   <i name="ENCUTGWSOFT">     -2.00000000</i>
   <i name="ENCUTLF">     -1.00000000</i>
   <i type="int" name="LMAXMP2">    -1</i>
   <i name="SCISSOR">      0.00000000</i>
   <i type="int" name="NOMEGA">     0</i>
   <i type="int" name="NOMEGAR">     0</i>
   <i type="int" name="NBANDSGW">    -1</i>
   <i type="int" name="NBANDSO">    -1</i>
   <i type="int" name="NBANDSV">    -1</i>
   <i type="int" name="NELM">    60</i>
   <i type="int" name="NELMHF">     1</i>
   <i type="int" name="DIM">     3</i>
   <i type="int" name="ANTIRES">     0</i>
   <i name="OMEGAMAX">    -30.00000000</i>
   <i name="OMEGAMIN">    -30.00000000</i>
   <i name="OMEGATL">   -200.00000000</i>
   <i type="int" name="OMEGAGRID">   140</i>
   <i name="CSHIFT">     -0.10000000</i>
   <i type="logical" name="SELFENERGY"> F  </i>
   <i type="logical" name="LSPECTRAL"> F  </i>
   <i type="logical" name="LSPECTRALGW"> F  </i>
   <i type="logical" name="LSINGLES"> F  </i>
   <i type="logical" name="LFERMIGW"> F  </i>
   <i type="logical" name="ODDONLYGW"> F  </i>
   <i type="logical" name="EVENONLYGW"> F  </i>
   <i type="int" name="NKREDLFX">     1</i>
   <i type="int" name="NKREDLFY">     1</i>
   <i type="int" name="NKREDLFZ">     1</i>
   <i type="int" name="MAXMEM">  2800</i>
   <i type="int" name="TELESCOPE">     0</i>
   <i type="int" name="TAUPAR">     1</i>
   <i type="int" name="OMEGAPAR">    -1</i>
   <i name="LAMBDA">      1.00000000</i>
  </separator>
  <separator name="External order field" >
   <i name="OFIELD_KAPPA">      0.00000000</i>
   <v name="OFIELD_K">      0.00000000      0.00000000      0.00000000</v>
   <i name="OFIELD_Q6_NEAR">      0.00000000</i>
   <i name="OFIELD_Q6_FAR">      0.00000000</i>
   <i name="OFIELD_A">      0.00000000</i>
  </separator>
  <separator name="solvation model" >
   <i type="logical" name="LSOL"> F  </i>
  </separator>
 </parameters>
 <atominfo>
  <atoms>      98 </atoms>
  <types>       4 </types>
  <array name="atoms" >
   <dimension dim="1">ion</dimension>
   <field type="string">element</field>
   <field type="int">atomtype</field>
   <set>
    <rc><c>Ir</c><c>   1</c></rc>
    <rc><c>Ir</c><c>   1</c></rc>
    <rc><c>Ir</c><c>   1</c></rc>
    <rc><c>Ir</c><c>   1</c></rc>
    <rc><c>Ir</c><c>   1</c></rc>
    <rc><c>Ir</c><c>   1</c></rc>
    <rc><c>Ir</c><c>   1</c></rc>
    <rc><c>Ir</c><c>   1</c></rc>
    <rc><c>Ir</c><c>   1</c></rc>
    <rc><c>Ir</c><c>   1</c></rc>
    <rc><c>Ir</c><c>   1</c></rc>
    <rc><c>Ir</c><c>   1</c></rc>
    <rc><c>Ir</c><c>   1</c></rc>
    <rc><c>Ir</c><c>   1</c></rc>
    <rc><c>Ir</c><c>   1</c></rc>
    <rc><c>Ir</c><c>   1</c></rc>
    <rc><c>O </c><c>   2</c></rc>
    <rc><c>O </c><c>   2</c></rc>
    <rc><c>O </c><c>   2</c></rc>
    <rc><c>O </c><c>   2</c></rc>
    <rc><c>O </c><c>   2</c></rc>
    <rc><c>O </c><c>   2</c></rc>
    <rc><c>O </c><c>   2</c></rc>
    <rc><c>O </c><c>   2</c></rc>
    <rc><c>O </c><c>   2</c></rc>
    <rc><c>O </c><c>   2</c></rc>
    <rc><c>O </c><c>   2</c></rc>
    <rc><c>O </c><c>   2</c></rc>
    <rc><c>O </c><c>   2</c></rc>
    <rc><c>O </c><c>   2</c></rc>
    <rc><c>O </c><c>   2</c></rc>
    <rc><c>O </c><c>   2</c></rc>
    <rc><c>O </c><c>   2</c></rc>
    <rc><c>O </c><c>   2</c></rc>
    <rc><c>O </c><c>   2</c></rc>
    <rc><c>O </c><c>   2</c></rc>
    <rc><c>O </c><c>   2</c></rc>
    <rc><c>O </c><c>   2</c></rc>
    <rc><c>O </c><c>   2</c></rc>
    <rc><c>O </c><c>   2</c></rc>
    <rc><c>O </c><c>   2</c></rc>
    <rc><c>O </c><c>   2</c></rc>
    <rc><c>O </c><c>   2</c></rc>
    <rc><c>O </c><c>   2</c></rc>
    <rc><c>O </c><c>   2</c></rc>
    <rc><c>O </c><c>   2</c></rc>
    <rc><c>O </c><c>   2</c></rc>
    <rc><c>O </c><c>   2</c></rc>
    <rc><c>O </c><c>   2</c></rc>
    <rc><c>O </c><c>   2</c></rc>
    <rc><c>Ir</c><c>   3</c></rc>
    <rc><c>Ir</c><c>   3</c></rc>
    <rc><c>Ir</c><c>   3</c></rc>
    <rc><c>Ir</c><c>   3</c></rc>
    <rc><c>Ir</c><c>   3</c></rc>
    <rc><c>Ir</c><c>   3</c></rc>
    <rc><c>Ir</c><c>   3</c></rc>
    <rc><c>Ir</c><c>   3</c></rc>
    <rc><c>Ir</c><c>   3</c></rc>
    <rc><c>Ir</c><c>   3</c></rc>
    <rc><c>Ir</c><c>   3</c></rc>
    <rc><c>Ir</c><c>   3</c></rc>
    <rc><c>Ir</c><c>   3</c></rc>
    <rc><c>Ir</c><c>   3</c></rc>
    <rc><c>Ir</c><c>   3</c></rc>
    <rc><c>O </c><c>   4</c></rc>
    <rc><c>O </c><c>   4</c></rc>
    <rc><c>O </c><c>   4</c></rc>
    <rc><c>O </c><c>   4</c></rc>
    <rc><c>O </c><c>   4</c></rc>
    <rc><c>O </c><c>   4</c></rc>
    <rc><c>O </c><c>   4</c></rc>
    <rc><c>O </c><c>   4</c></rc>
    <rc><c>O </c><c>   4</c></rc>
    <rc><c>O </c><c>   4</c></rc>
    <rc><c>O </c><c>   4</c></rc>
    <rc><c>O </c><c>   4</c></rc>
    <rc><c>O </c><c>   4</c></rc>
    <rc><c>O </c><c>   4</c></rc>
    <rc><c>O </c><c>   4</c></rc>
    <rc><c>O </c><c>   4</c></rc>
    <rc><c>O </c><c>   4</c></rc>
    <rc><c>O </c><c>   4</c></rc>
    <rc><c>O </c><c>   4</c></rc>
    <rc><c>O </c><c>   4</c></rc>
    <rc><c>O </c><c>   4</c></rc>
    <rc><c>O </c><c>   4</c></rc>
    <rc><c>O </c><c>   4</c></rc>
    <rc><c>O </c><c>   4</c></rc>
    <rc><c>O </c><c>   4</c></rc>
    <rc><c>O </c><c>   4</c></rc>
    <rc><c>O </c><c>   4</c></rc>
    <rc><c>O </c><c>   4</c></rc>
    <rc><c>O </c><c>   4</c></rc>
    <rc><c>O </c><c>   4</c></rc>
    <rc><c>O </c><c>   4</c></rc>
    <rc><c>O </c><c>   4</c></rc>
    <rc><c>O </c><c>   4</c></rc>
   </set>
  </array>
  <array name="atomtypes" >
   <dimension dim="1">type</dimension>
   <field type="int">atomspertype</field>
   <field type="string">element</field>
   <field>mass</field>
   <field>valence</field>
   <field type="string">pseudopotential</field>
   <set>
    <rc><c>  16</c><c>Ir</c><c>    192.22000000</c><c>      9.00000000</c><c>  PAW_PBE Ir 06Sep2000                  </c></rc>
    <rc><c>  34</c><c>O </c><c>     16.00000000</c><c>      6.00000000</c><c>  PAW_PBE O 08Apr2002                   </c></rc>
    <rc><c>  15</c><c>Ir</c><c>    192.22000000</c><c>      9.00000000</c><c>  PAW_PBE Ir 06Sep2000                  </c></rc>
    <rc><c>  33</c><c>O </c><c>     16.00000000</c><c>      6.00000000</c><c>  PAW_PBE O 08Apr2002                   </c></rc>
   </set>
  </array>
 </atominfo>
 <structure name="initialpos" >
  <crystal>
   <varray name="basis" >
    <v>      12.80853200       0.00000000       0.00000000 </v>
    <v>       0.00000000       6.47024300       0.00000000 </v>
    <v>       0.00000000       0.00000000      25.88097200 </v>
   </varray>
   <i name="volume">   2144.86781344 </i>
   <varray name="rec_basis" >
    <v>       0.07807296       0.00000000       0.00000000 </v>
    <v>       0.00000000       0.15455370       0.00000000 </v>
    <v>       0.00000000       0.00000000       0.03863843 </v>
   </varray>
  </crystal>
  <varray name="positions" >
   <v>       0.12500000       0.50000000       0.18750000 </v>
   <v>       0.37500000       0.50000000       0.18750000 </v>
   <v>       0.12500000       0.00000000       0.06250000 </v>
   <v>       0.37500000       0.00000000       0.06250000 </v>
   <v>       0.00000000       0.50000000       0.06250000 </v>
   <v>       0.25000000       0.50000000       0.06250000 </v>
   <v>       0.00000000       0.00000000       0.18750000 </v>
   <v>       0.25000000       0.00000000       0.18750000 </v>
   <v>       0.12609240       0.50000000       0.43770027 </v>
   <v>       0.37391343       0.50000000       0.43768410 </v>
   <v>       0.12462232       0.00000000       0.31314365 </v>
   <v>       0.37537603       0.00000000       0.31315361 </v>
   <v>       0.99985407       0.50000000       0.31288845 </v>
   <v>       0.24997861       0.50000000       0.31274725 </v>
   <v>       0.99201306       0.00000000       0.44197490 </v>
   <v>       0.25001460       0.00000000       0.44022059 </v>
   <v>       0.00000000       0.50000000       0.13961000 </v>
   <v>       0.25000000       0.50000000       0.13961000 </v>
   <v>       0.00000000       0.00000000       0.01461000 </v>
   <v>       0.25000000       0.00000000       0.01461000 </v>
   <v>       0.12500000       0.80844000       0.18750000 </v>
   <v>       0.37500000       0.80844000       0.18750000 </v>
   <v>       0.12500000       0.30844000       0.06250000 </v>
   <v>       0.37500000       0.30844000       0.06250000 </v>
   <v>       0.00000000       0.50000000       0.23539000 </v>
   <v>       0.25000000       0.50000000       0.23539000 </v>
   <v>       0.00000000       0.00000000       0.11039000 </v>
   <v>       0.25000000       0.00000000       0.11039000 </v>
   <v>       0.12500000       0.19156000       0.18750000 </v>
   <v>       0.37500000       0.19156000       0.18750000 </v>
   <v>       0.12500000       0.69156000       0.06250000 </v>
   <v>       0.37500000       0.69156000       0.06250000 </v>
   <v>       0.00148799       0.50000000       0.38938098 </v>
   <v>       0.24997610       0.50000000       0.38894845 </v>
   <v>       0.00049693       0.00000000       0.26500584 </v>
   <v>       0.25002815       0.00000000       0.26511695 </v>
   <v>       0.12446849       0.80789819       0.43448736 </v>
   <v>       0.37555825       0.80789271       0.43451314 </v>
   <v>       0.12474673       0.30816948       0.31254897 </v>
   <v>       0.37526518       0.30820828       0.31256152 </v>
   <v>       0.00311477       0.50000000       0.48396029 </v>
   <v>       0.25002952       0.50000000       0.48326157 </v>
   <v>       0.99880088       0.00000000       0.36147633 </v>
   <v>       0.24999750       0.00000000       0.36160611 </v>
   <v>       0.12446849       0.19210181       0.43448736 </v>
   <v>       0.37555825       0.19210729       0.43451314 </v>
   <v>       0.12474673       0.69183052       0.31254897 </v>
   <v>       0.37526518       0.69179172       0.31256152 </v>
   <v>       0.25000550       0.00000000       0.50878937 </v>
   <v>       0.01167042       0.00000000       0.50955327 </v>
   <v>       0.62500000       0.50000000       0.18750000 </v>
   <v>       0.87500000       0.50000000       0.18750000 </v>
   <v>       0.62500000       0.00000000       0.06250000 </v>
   <v>       0.87500000       0.00000000       0.06250000 </v>
   <v>       0.50000000       0.50000000       0.06250000 </v>
   <v>       0.75000000       0.50000000       0.06250000 </v>
   <v>       0.50000000       0.00000000       0.18750000 </v>
   <v>       0.75000000       0.00000000       0.18750000 </v>
   <v>       0.62328514       0.50000000       0.43868640 </v>
   <v>       0.87669311       0.50000000       0.43868946 </v>
   <v>       0.62721585       0.00000000       0.31280077 </v>
   <v>       0.87278321       0.00000000       0.31278944 </v>
   <v>       0.50014932       0.50000000       0.31287105 </v>
   <v>       0.75000038       0.50000000       0.31332517 </v>
   <v>       0.50802065       0.00000000       0.44200084 </v>
   <v>       0.50000000       0.50000000       0.13961000 </v>
   <v>       0.75000000       0.50000000       0.13961000 </v>
   <v>       0.50000000       0.00000000       0.01461000 </v>
   <v>       0.75000000       0.00000000       0.01461000 </v>
   <v>       0.62500000       0.80844000       0.18750000 </v>
   <v>       0.87500000       0.80844000       0.18750000 </v>
   <v>       0.62500000       0.30844000       0.06250000 </v>
   <v>       0.87500000       0.30844000       0.06250000 </v>
   <v>       0.50000000       0.50000000       0.23539000 </v>
   <v>       0.75000000       0.50000000       0.23539000 </v>
   <v>       0.50000000       0.00000000       0.11039000 </v>
   <v>       0.75000000       0.00000000       0.11039000 </v>
   <v>       0.62500000       0.19156000       0.18750000 </v>
   <v>       0.87500000       0.19156000       0.18750000 </v>
   <v>       0.62500000       0.69156000       0.06250000 </v>
   <v>       0.87500000       0.69156000       0.06250000 </v>
   <v>       0.49854268       0.50000000       0.38940666 </v>
   <v>       0.74997408       0.50000000       0.38998157 </v>
   <v>       0.49953597       0.00000000       0.26501145 </v>
   <v>       0.74998922       0.00000000       0.26415836 </v>
   <v>       0.62020105       0.80098422       0.43716985 </v>
   <v>       0.87992820       0.80094613       0.43710269 </v>
   <v>       0.62520173       0.30778583       0.31250671 </v>
   <v>       0.87480286       0.30779599       0.31252126 </v>
   <v>       0.49687409       0.50000000       0.48395812 </v>
   <v>       0.75009219       0.50000000       0.48385729 </v>
   <v>       0.50122320       0.00000000       0.36151299 </v>
   <v>       0.74999985       0.00000000       0.35810869 </v>
   <v>       0.62020105       0.19901578       0.43716985 </v>
   <v>       0.87992820       0.19905387       0.43710269 </v>
   <v>       0.62520173       0.69221417       0.31250671 </v>
   <v>       0.87480286       0.69220401       0.31252126 </v>
   <v>       0.48837989       0.00000000       0.50956022 </v>
  </varray>
  <varray name="selective"  type="logical" >
   <v type="logical" >  F  F  F </v>
   <v type="logical" >  F  F  F </v>
   <v type="logical" >  F  F  F </v>
   <v type="logical" >  F  F  F </v>
   <v type="logical" >  F  F  F </v>
   <v type="logical" >  F  F  F </v>
   <v type="logical" >  F  F  F </v>
   <v type="logical" >  F  F  F </v>
   <v type="logical" >  T  T  T </v>
   <v type="logical" >  T  T  T </v>
   <v type="logical" >  T  T  T </v>
   <v type="logical" >  T  T  T </v>
   <v type="logical" >  T  T  T </v>
   <v type="logical" >  T  T  T </v>
   <v type="logical" >  T  T  T </v>
   <v type="logical" >  T  T  T </v>
   <v type="logical" >  F  F  F </v>
   <v type="logical" >  F  F  F </v>
   <v type="logical" >  F  F  F </v>
   <v type="logical" >  F  F  F </v>
   <v type="logical" >  F  F  F </v>
   <v type="logical" >  F  F  F </v>
   <v type="logical" >  F  F  F </v>
   <v type="logical" >  F  F  F </v>
   <v type="logical" >  F  F  F </v>
   <v type="logical" >  F  F  F </v>
   <v type="logical" >  F  F  F </v>
   <v type="logical" >  F  F  F </v>
   <v type="logical" >  F  F  F </v>
   <v type="logical" >  F  F  F </v>
   <v type="logical" >  F  F  F </v>
   <v type="logical" >  F  F  F </v>
   <v type="logical" >  T  T  T </v>
   <v type="logical" >  T  T  T </v>
   <v type="logical" >  T  T  T </v>
   <v type="logical" >  T  T  T </v>
   <v type="logical" >  T  T  T </v>
   <v type="logical" >  T  T  T </v>
   <v type="logical" >  T  T  T </v>
   <v type="logical" >  T  T  T </v>
   <v type="logical" >  T  T  T </v>
   <v type="logical" >  T  T  T </v>
   <v type="logical" >  T  T  T </v>
   <v type="logical" >  T  T  T </v>
   <v type="logical" >  T  T  T </v>
   <v type="logical" >  T  T  T </v>
   <v type="logical" >  T  T  T </v>
   <v type="logical" >  T  T  T </v>
   <v type="logical" >  T  T  T </v>
   <v type="logical" >  T  T  T </v>
   <v type="logical" >  F  F  F </v>
   <v type="logical" >  F  F  F </v>
   <v type="logical" >  F  F  F </v>
   <v type="logical" >  F  F  F </v>
   <v type="logical" >  F  F  F </v>
   <v type="logical" >  F  F  F </v>
   <v type="logical" >  F  F  F </v>
   <v type="logical" >  F  F  F </v>
   <v type="logical" >  T  T  T </v>
   <v type="logical" >  T  T  T </v>
   <v type="logical" >  T  T  T </v>
   <v type="logical" >  T  T  T </v>
   <v type="logical" >  T  T  T </v>
   <v type="logical" >  T  T  T </v>
   <v type="logical" >  T  T  T </v>
   <v type="logical" >  F  F  F </v>
   <v type="logical" >  F  F  F </v>
   <v type="logical" >  F  F  F </v>
   <v type="logical" >  F  F  F </v>
   <v type="logical" >  F  F  F </v>
   <v type="logical" >  F  F  F </v>
   <v type="logical" >  F  F  F </v>
   <v type="logical" >  F  F  F </v>
   <v type="logical" >  F  F  F </v>
   <v type="logical" >  F  F  F </v>
   <v type="logical" >  F  F  F </v>
   <v type="logical" >  F  F  F </v>
   <v type="logical" >  F  F  F </v>
   <v type="logical" >  F  F  F </v>
   <v type="logical" >  F  F  F </v>
   <v type="logical" >  F  F  F </v>
   <v type="logical" >  T  T  T </v>
   <v type="logical" >  T  T  T </v>
   <v type="logical" >  T  T  T </v>
   <v type="logical" >  T  T  T </v>
   <v type="logical" >  T  T  T </v>
   <v type="logical" >  T  T  T </v>
   <v type="logical" >  T  T  T </v>
   <v type="logical" >  T  T  T </v>
   <v type="logical" >  T  T  T </v>
   <v type="logical" >  T  T  T </v>
   <v type="logical" >  T  T  T </v>
   <v type="logical" >  T  T  T </v>
   <v type="logical" >  T  T  T </v>
   <v type="logical" >  T  T  T </v>
   <v type="logical" >  T  T  T </v>
   <v type="logical" >  T  T  T </v>
   <v type="logical" >  T  T  T </v>
  </varray>
  <nose>
   <v>      -3.00000000       0.00000000       0.00010000       0.00010000 </v>
  </nose>
 </structure>
 <calculation>
  <scstep>
   <time name="dav">   14.68   14.75</time>
   <time name="total">   14.86   15.03</time>
   <dipole>
    <v name="dipole">      0.00000000       0.00000000       0.00001110 </v>
    <i name="Tr[quadrupol]"> -12697.53228134 </i>
    <i name="Echarged">      0.00000000 </i>
    <i name="Edipol_quadrupol">      0.00000000 </i>
    <i name="Eion">      0.00000000 </i>
   </dipole>
   <energy>
    <i name="alphaZ">   1739.63037224 </i>
    <i name="ewald"> 227053.38281192 </i>
    <i name="hartreedc">-272822.45218577 </i>
    <i name="XCdc">   1299.72215896 </i>
    <i name="pawpsdc">  40350.23190548 </i>
    <i name="pawaedc"> -39173.73407822 </i>
    <i name="eentropy">     -0.05352134 </i>
    <i name="bandstr">   2769.59480870 </i>
    <i name="atom">  46306.32569913 </i>
    <i name="e_fr_energy">   7522.64797110 </i>
    <i name="e_wo_entrp">   7522.70149244 </i>
    <i name="e_0_energy">   7522.67473177 </i>
   </energy>
  </scstep>
  <scstep>
   <time name="dav">   15.19   15.25</time>
   <time name="total">   15.20   15.25</time>
   <dipole>
    <v name="dipole">      0.00000000       0.00000000       0.00001110 </v>
    <i name="Tr[quadrupol]"> -12697.53228134 </i>
    <i name="Echarged">      0.00000000 </i>
    <i name="Edipol_quadrupol">      0.00000000 </i>
    <i name="Eion">      0.00000000 </i>
   </dipole>
   <energy>
    <i name="e_fr_energy">    515.31270431 </i>
    <i name="e_wo_entrp">    515.35806059 </i>
    <i name="e_0_energy">    515.33538245 </i>
   </energy>
  </scstep>
  <scstep>
   <time name="dav">   17.56   17.62</time>
   <time name="total">   17.56   17.62</time>
   <dipole>
    <v name="dipole">      0.00000000       0.00000000       0.00001110 </v>
    <i name="Tr[quadrupol]"> -12697.53228134 </i>
    <i name="Echarged">      0.00000000 </i>
    <i name="Edipol_quadrupol">      0.00000000 </i>
    <i name="Eion">      0.00000000 </i>
   </dipole>
   <energy>
    <i name="e_fr_energy">   -693.04384375 </i>
    <i name="e_wo_entrp">   -692.97878441 </i>
    <i name="e_0_energy">   -693.01131408 </i>
   </energy>
  </scstep>
  <scstep>
   <time name="dav">   17.52   17.57</time>
   <time name="total">   17.52   17.57</time>
   <dipole>
    <v name="dipole">      0.00000000       0.00000000       0.00001110 </v>
    <i name="Tr[quadrupol]"> -12697.53228134 </i>
    <i name="Echarged">      0.00000000 </i>
    <i name="Edipol_quadrupol">      0.00000000 </i>
    <i name="Eion">      0.00000000 </i>
   </dipole>
   <energy>
    <i name="e_fr_energy">   -763.46034045 </i>
    <i name="e_wo_entrp">   -763.38373211 </i>
    <i name="e_0_energy">   -763.42203628 </i>
   </energy>
  </scstep>
  <scstep>
   <time name="dav">   17.69   17.75</time>
   <time name="total">   18.09   18.15</time>
   <dipole>
    <v name="dipole">      0.00000000       0.00000000       0.00001110 </v>
    <i name="Tr[quadrupol]"> -12697.53228134 </i>
    <i name="Echarged">      0.00000000 </i>
    <i name="Edipol_quadrupol">      0.00000000 </i>
    <i name="Eion">      0.00000000 </i>
   </dipole>
   <energy>
    <i name="e_fr_energy">   -765.62097943 </i>
    <i name="e_wo_entrp">   -765.54326250 </i>
    <i name="e_0_energy">   -765.58212097 </i>
   </energy>
  </scstep>
  <scstep>
   <time name="diag">    2.15    2.16</time>
   <time name="diis">    5.55    5.56</time>
   <time name="orth">    0.64    0.64</time>
   <time name="total">    8.85    8.87</time>
   <dipole>
    <v name="dipole">      0.00000000       0.00000000       2.04730496 </v>
    <i name="Tr[quadrupol]"> -12681.69850966 </i>
    <i name="Echarged">      0.00000000 </i>
    <i name="Edipol_quadrupol">      0.00000000 </i>
    <i name="Eion">      0.00000000 </i>
   </dipole>
   <energy>
    <i name="e_fr_energy">   -687.20924437 </i>
    <i name="e_wo_entrp">   -687.14500516 </i>
    <i name="e_0_energy">   -687.17712476 </i>
   </energy>
  </scstep>
  <scstep>
   <time name="diag">    2.15    2.15</time>
   <time name="diis">    6.44    6.45</time>
   <time name="orth">    0.63    0.64</time>
   <time name="total">    9.73    9.76</time>
   <dipole>
    <v name="dipole">      0.00000000       0.00000000     -14.62537602 </v>
    <i name="Tr[quadrupol]"> -12716.53217228 </i>
    <i name="Echarged">      0.00000000 </i>
    <i name="Edipol_quadrupol">      0.00000000 </i>
    <i name="Eion">      0.00000000 </i>
   </dipole>
   <energy>
    <i name="e_fr_energy">  -2527.21268383 </i>
    <i name="e_wo_entrp">  -2527.17672142 </i>
    <i name="e_0_energy">  -2527.19470263 </i>
   </energy>
  </scstep>
  <scstep>
   <time name="diag">    2.15    2.15</time>
   <time name="diis">    7.22    7.24</time>
   <time name="orth">    0.64    0.64</time>
   <time name="total">   10.52   10.54</time>
   <dipole>
    <v name="dipole">      0.00000000       0.00000000     -14.64009654 </v>
    <i name="Tr[quadrupol]"> -12716.83502309 </i>
    <i name="Echarged">      0.00000000 </i>
    <i name="Edipol_quadrupol">      0.00000000 </i>
    <i name="Eion">      0.00000000 </i>
   </dipole>
   <energy>
    <i name="e_fr_energy">  -2575.01608251 </i>
    <i name="e_wo_entrp">  -2574.99686483 </i>
    <i name="e_0_energy">  -2575.00647367 </i>
   </energy>
  </scstep>
  <scstep>
   <time name="diag">    2.15    2.15</time>
   <time name="diis">    5.58    5.59</time>
   <time name="orth">    0.64    0.64</time>
   <time name="total">    8.88    8.90</time>
   <dipole>
    <v name="dipole">      0.00000000       0.00000000      10.25101757 </v>
    <i name="Tr[quadrupol]"> -12657.41600799 </i>
    <i name="Echarged">      0.00000000 </i>
    <i name="Edipol_quadrupol">      0.00000000 </i>
    <i name="Eion">      0.00000000 </i>
   </dipole>
   <energy>
    <i name="e_fr_energy">   -976.23112468 </i>
    <i name="e_wo_entrp">   -976.19212862 </i>
    <i name="e_0_energy">   -976.21162665 </i>
   </energy>
  </scstep>
  <scstep>
   <time name="diag">    2.17    2.18</time>
   <time name="diis">    5.98    6.00</time>
   <time name="orth">    0.64    0.64</time>
   <time name="total">    9.30    9.33</time>
   <dipole>
    <v name="dipole">      0.00000000       0.00000000       9.48734196 </v>
    <i name="Tr[quadrupol]"> -12677.89631517 </i>
    <i name="Echarged">      0.00000000 </i>
    <i name="Edipol_quadrupol">      0.00000000 </i>
    <i name="Eion">      0.00000000 </i>
   </dipole>
   <energy>
    <i name="e_fr_energy">  -1069.93619751 </i>
    <i name="e_wo_entrp">  -1069.89742889 </i>
    <i name="e_0_energy">  -1069.91681320 </i>
   </energy>
  </scstep>
  <scstep>
   <time name="diag">    2.15    2.15</time>
   <time name="diis">    5.82    5.84</time>
   <time name="orth">    0.64    0.64</time>
   <time name="total">    9.14    9.16</time>
   <dipole>
    <v name="dipole">      0.00000000       0.00000000      10.07326866 </v>
    <i name="Tr[quadrupol]"> -12679.12238082 </i>
    <i name="Echarged">      0.00000000 </i>
    <i name="Edipol_quadrupol">      0.00000000 </i>
    <i name="Eion">      0.00000000 </i>
   </dipole>
   <energy>
    <i name="e_fr_energy">  -1000.73556628 </i>
    <i name="e_wo_entrp">  -1000.67846637 </i>
    <i name="e_0_energy">  -1000.70701633 </i>
   </energy>
  </scstep>
  <scstep>
   <time name="diag">    2.15    2.16</time>
   <time name="diis">    5.61    5.62</time>
   <time name="orth">    0.64    0.64</time>
   <time name="total">    8.92    8.94</time>
   <dipole>
    <v name="dipole">      0.00000000       0.00000000      12.88402722 </v>
    <i name="Tr[quadrupol]"> -12628.72845202 </i>
    <i name="Echarged">      0.00000000 </i>
    <i name="Edipol_quadrupol">      0.00000000 </i>
    <i name="Eion">      0.00000000 </i>
   </dipole>
   <energy>
    <i name="e_fr_energy">   -670.49809511 </i>
    <i name="e_wo_entrp">   -670.44202761 </i>
    <i name="e_0_energy">   -670.47006136 </i>
   </energy>
  </scstep>
  <scstep>
   <time name="diag">    2.15    2.15</time>
   <time name="diis">    5.64    5.65</time>
   <time name="orth">    0.64    0.64</time>
   <time name="total">    8.93    8.96</time>
   <dipole>
    <v name="dipole">      0.00000000       0.00000000      12.58904249 </v>
    <i name="Tr[quadrupol]"> -12607.89113205 </i>
    <i name="Echarged">      0.00000000 </i>
    <i name="Edipol_quadrupol">      0.00000000 </i>
    <i name="Eion">      0.00000000 </i>
   </dipole>
   <energy>
    <i name="e_fr_energy">   -614.93545689 </i>
    <i name="e_wo_entrp">   -614.87757012 </i>
    <i name="e_0_energy">   -614.90651350 </i>
   </energy>
  </scstep>
  <scstep>
   <time name="diag">    2.15    2.16</time>
   <time name="diis">    5.73    5.74</time>
   <time name="orth">    0.64    0.64</time>
   <time name="total">    9.04    9.07</time>
   <dipole>
    <v name="dipole">      0.00000000       0.00000000      12.35167950 </v>
    <i name="Tr[quadrupol]"> -12599.68505101 </i>
    <i name="Echarged">      0.00000000 </i>
    <i name="Edipol_quadrupol">      0.00000000 </i>
    <i name="Eion">      0.00000000 </i>
   </dipole>
   <energy>
    <i name="e_fr_energy">   -603.53410645 </i>
    <i name="e_wo_entrp">   -603.45507857 </i>
    <i name="e_0_energy">   -603.49459251 </i>
   </energy>
  </scstep>
  <scstep>
   <time name="diag">    2.14    2.15</time>
   <time name="diis">    5.57    5.58</time>
   <time name="orth">    0.63    0.64</time>
   <time name="total">    8.87    8.89</time>
   <dipole>
    <v name="dipole">      0.00000000       0.00000000      11.96849864 </v>
    <i name="Tr[quadrupol]"> -12597.70371974 </i>
    <i name="Echarged">      0.00000000 </i>
    <i name="Edipol_quadrupol">      0.00000000 </i>
    <i name="Eion">      0.00000000 </i>
   </dipole>
   <energy>
    <i name="e_fr_energy">   -603.82071379 </i>
    <i name="e_wo_entrp">   -603.73372594 </i>
    <i name="e_0_energy">   -603.77721986 </i>
   </energy>
  </scstep>
  <scstep>
   <time name="diag">    2.15    2.15</time>
   <time name="diis">    5.64    5.66</time>
   <time name="orth">    0.64    0.64</time>
   <time name="total">    8.95    8.97</time>
   <dipole>
    <v name="dipole">      0.00000000       0.00000000      12.11204714 </v>
    <i name="Tr[quadrupol]"> -12591.97566589 </i>
    <i name="Echarged">      0.00000000 </i>
    <i name="Edipol_quadrupol">      0.00000000 </i>
    <i name="Eion">      0.00000000 </i>
   </dipole>
   <energy>
    <i name="e_fr_energy">   -613.30182714 </i>
    <i name="e_wo_entrp">   -613.23828641 </i>
    <i name="e_0_energy">   -613.27005678 </i>
   </energy>
  </scstep>
  <scstep>
   <time name="diag">    2.14    2.15</time>
   <time name="diis">    5.57    5.59</time>
   <time name="orth">    0.64    0.64</time>
   <time name="total">    8.87    8.89</time>
   <dipole>
    <v name="dipole">      0.00000000       0.00000000      11.76778693 </v>
    <i name="Tr[quadrupol]"> -12585.55812065 </i>
    <i name="Echarged">      0.00000000 </i>
    <i name="Edipol_quadrupol">      0.00000000 </i>
    <i name="Eion">      0.00000000 </i>
   </dipole>
   <energy>
    <i name="e_fr_energy">   -610.44843570 </i>
    <i name="e_wo_entrp">   -610.36546479 </i>
    <i name="e_0_energy">   -610.40695024 </i>
   </energy>
  </scstep>
  <scstep>
   <time name="diag">    2.18    2.18</time>
   <time name="diis">    5.67    5.70</time>
   <time name="orth">    0.64    0.64</time>
   <time name="total">    9.01    9.05</time>
   <dipole>
    <v name="dipole">      0.00000000       0.00000000      11.25101661 </v>
    <i name="Tr[quadrupol]"> -12580.94566545 </i>
    <i name="Echarged">      0.00000000 </i>
    <i name="Edipol_quadrupol">      0.00000000 </i>
    <i name="Eion">      0.00000000 </i>
   </dipole>
   <energy>
    <i name="e_fr_energy">   -608.91875103 </i>
    <i name="e_wo_entrp">   -608.84395721 </i>
    <i name="e_0_energy">   -608.88135412 </i>
   </energy>
  </scstep>
  <scstep>
   <time name="diag">    2.14    2.14</time>
   <time name="diis">    5.60    5.61</time>
   <time name="orth">    0.64    0.64</time>
   <time name="total">    8.89    8.92</time>
   <dipole>
    <v name="dipole">      0.00000000       0.00000000      10.60016332 </v>
    <i name="Tr[quadrupol]"> -12574.03301940 </i>
    <i name="Echarged">      0.00000000 </i>
    <i name="Edipol_quadrupol">      0.00000000 </i>
    <i name="Eion">      0.00000000 </i>
   </dipole>
   <energy>
    <i name="e_fr_energy">   -612.93714922 </i>
    <i name="e_wo_entrp">   -612.85707971 </i>
    <i name="e_0_energy">   -612.89711447 </i>
   </energy>
  </scstep>
  <scstep>
   <time name="diag">    2.14    2.14</time>
   <time name="diis">    5.66    5.68</time>
   <time name="orth">    0.64    0.64</time>
   <time name="total">    8.96    8.98</time>
   <dipole>
    <v name="dipole">      0.00000000       0.00000000       9.82833391 </v>
    <i name="Tr[quadrupol]"> -12566.11071530 </i>
    <i name="Echarged">      0.00000000 </i>
    <i name="Edipol_quadrupol">      0.00000000 </i>
    <i name="Eion">      0.00000000 </i>
   </dipole>
   <energy>
    <i name="e_fr_energy">   -616.73131120 </i>
    <i name="e_wo_entrp">   -616.65692844 </i>
    <i name="e_0_energy">   -616.69411982 </i>
   </energy>
  </scstep>
  <scstep>
   <time name="diag">    2.14    2.14</time>
   <time name="diis">    5.63    5.64</time>
   <time name="orth">    0.64    0.64</time>
   <time name="total">    8.93    8.96</time>
   <dipole>
    <v name="dipole">      0.00000000       0.00000000       8.95986337 </v>
    <i name="Tr[quadrupol]"> -12557.56506070 </i>
    <i name="Echarged">      0.00000000 </i>
    <i name="Edipol_quadrupol">      0.00000000 </i>
    <i name="Eion">      0.00000000 </i>
   </dipole>
   <energy>
    <i name="e_fr_energy">   -619.46470727 </i>
    <i name="e_wo_entrp">   -619.37966168 </i>
    <i name="e_0_energy">   -619.42218447 </i>
   </energy>
  </scstep>
  <scstep>
   <time name="diag">    2.14    2.15</time>
   <time name="diis">    5.62    5.64</time>
   <time name="orth">    0.64    0.65</time>
   <time name="total">    8.93    8.96</time>
   <dipole>
    <v name="dipole">      0.00000000       0.00000000       8.82781713 </v>
    <i name="Tr[quadrupol]"> -12555.17954948 </i>
    <i name="Echarged">      0.00000000 </i>
    <i name="Edipol_quadrupol">      0.00000000 </i>
    <i name="Eion">      0.00000000 </i>
   </dipole>
   <energy>
    <i name="e_fr_energy">   -622.29184289 </i>
    <i name="e_wo_entrp">   -622.22205938 </i>
    <i name="e_0_energy">   -622.25695113 </i>
   </energy>
  </scstep>
  <scstep>
   <time name="diag">    2.15    2.15</time>
   <time name="diis">    5.63    5.65</time>
   <time name="orth">    0.63    0.64</time>
   <time name="total">    8.94    8.96</time>
   <dipole>
    <v name="dipole">      0.00000000       0.00000000       8.48374393 </v>
    <i name="Tr[quadrupol]"> -12549.95124256 </i>
    <i name="Echarged">      0.00000000 </i>
    <i name="Edipol_quadrupol">      0.00000000 </i>
    <i name="Eion">      0.00000000 </i>
   </dipole>
   <energy>
    <i name="e_fr_energy">   -624.80268707 </i>
    <i name="e_wo_entrp">   -624.72705641 </i>
    <i name="e_0_energy">   -624.76487174 </i>
   </energy>
  </scstep>
  <scstep>
   <time name="diag">    2.15    2.16</time>
   <time name="diis">    5.62    5.63</time>
   <time name="orth">    0.67    0.68</time>
   <time name="total">    8.96    8.99</time>
   <dipole>
    <v name="dipole">      0.00000000       0.00000000       8.31282220 </v>
    <i name="Tr[quadrupol]"> -12544.93332785 </i>
    <i name="Echarged">      0.00000000 </i>
    <i name="Edipol_quadrupol">      0.00000000 </i>
    <i name="Eion">      0.00000000 </i>
   </dipole>
   <energy>
    <i name="e_fr_energy">   -626.20156961 </i>
    <i name="e_wo_entrp">   -626.13581263 </i>
    <i name="e_0_energy">   -626.16869112 </i>
   </energy>
  </scstep>
  <scstep>
   <time name="diag">    2.14    2.14</time>
   <time name="diis">    5.62    5.63</time>
   <time name="orth">    0.64    0.64</time>
   <time name="total">    8.91    8.94</time>
   <dipole>
    <v name="dipole">      0.00000000       0.00000000       8.16754142 </v>
    <i name="Tr[quadrupol]"> -12540.91032970 </i>
    <i name="Echarged">      0.00000000 </i>
    <i name="Edipol_quadrupol">      0.00000000 </i>
    <i name="Eion">      0.00000000 </i>
   </dipole>
   <energy>
    <i name="e_fr_energy">   -627.10096312 </i>
    <i name="e_wo_entrp">   -627.01669355 </i>
    <i name="e_0_energy">   -627.05882833 </i>
   </energy>
  </scstep>
  <scstep>
   <time name="diag">    2.14    2.15</time>
   <time name="diis">    5.68    5.69</time>
   <time name="orth">    0.64    0.64</time>
   <time name="total">    8.98    9.00</time>
   <dipole>
    <v name="dipole">      0.00000000       0.00000000       7.87494800 </v>
    <i name="Tr[quadrupol]"> -12536.61846619 </i>
    <i name="Echarged">      0.00000000 </i>
    <i name="Edipol_quadrupol">      0.00000000 </i>
    <i name="Eion">      0.00000000 </i>
   </dipole>
   <energy>
    <i name="e_fr_energy">   -628.75861875 </i>
    <i name="e_wo_entrp">   -628.67627750 </i>
    <i name="e_0_energy">   -628.71744812 </i>
   </energy>
  </scstep>
  <scstep>
   <time name="diag">    2.15    2.15</time>
   <time name="diis">    5.63    5.65</time>
   <time name="orth">    0.64    0.64</time>
   <time name="total">    8.94    8.96</time>
   <dipole>
    <v name="dipole">      0.00000000       0.00000000       7.79807206 </v>
    <i name="Tr[quadrupol]"> -12534.43701197 </i>
    <i name="Echarged">      0.00000000 </i>
    <i name="Edipol_quadrupol">      0.00000000 </i>
    <i name="Eion">      0.00000000 </i>
   </dipole>
   <energy>
    <i name="e_fr_energy">   -630.21426118 </i>
    <i name="e_wo_entrp">   -630.13720865 </i>
    <i name="e_0_energy">   -630.17573491 </i>
   </energy>
  </scstep>
  <scstep>
   <time name="diag">    2.14    2.15</time>
   <time name="diis">    5.66    5.67</time>
   <time name="orth">    0.64    0.64</time>
   <time name="total">    8.96    9.00</time>
   <dipole>
    <v name="dipole">      0.00000000       0.00000000       7.94661528 </v>
    <i name="Tr[quadrupol]"> -12534.04949057 </i>
    <i name="Echarged">      0.00000000 </i>
    <i name="Edipol_quadrupol">      0.00000000 </i>
    <i name="Eion">      0.00000000 </i>
   </dipole>
   <energy>
    <i name="e_fr_energy">   -631.20727666 </i>
    <i name="e_wo_entrp">   -631.12852020 </i>
    <i name="e_0_energy">   -631.16789843 </i>
   </energy>
  </scstep>
  <scstep>
   <time name="diag">    2.14    2.15</time>
   <time name="diis">    5.62    5.63</time>
   <time name="orth">    0.64    0.64</time>
   <time name="total">    8.92    8.94</time>
   <dipole>
    <v name="dipole">      0.00000000       0.00000000       8.16154667 </v>
    <i name="Tr[quadrupol]"> -12531.97911934 </i>
    <i name="Echarged">      0.00000000 </i>
    <i name="Edipol_quadrupol">      0.00000000 </i>
    <i name="Eion">      0.00000000 </i>
   </dipole>
   <energy>
    <i name="e_fr_energy">   -633.35682257 </i>
    <i name="e_wo_entrp">   -633.28969613 </i>
    <i name="e_0_energy">   -633.32325935 </i>
   </energy>
  </scstep>
  <scstep>
   <time name="diag">    2.15    2.15</time>
   <time name="diis">    5.68    5.69</time>
   <time name="orth">    0.64    0.64</time>
   <time name="total">    8.98    9.01</time>
   <dipole>
    <v name="dipole">      0.00000000       0.00000000       8.51663070 </v>
    <i name="Tr[quadrupol]"> -12531.58908979 </i>
    <i name="Echarged">      0.00000000 </i>
    <i name="Edipol_quadrupol">      0.00000000 </i>
    <i name="Eion">      0.00000000 </i>
   </dipole>
   <energy>
    <i name="e_fr_energy">   -634.34006623 </i>
    <i name="e_wo_entrp">   -634.26881371 </i>
    <i name="e_0_energy">   -634.30443997 </i>
   </energy>
  </scstep>
  <scstep>
   <time name="diag">    2.15    2.15</time>
   <time name="diis">    5.60    5.62</time>
   <time name="orth">    0.64    0.64</time>
   <time name="total">    8.91    8.94</time>
   <dipole>
    <v name="dipole">      0.00000000       0.00000000       8.76718830 </v>
    <i name="Tr[quadrupol]"> -12530.54722131 </i>
    <i name="Echarged">      0.00000000 </i>
    <i name="Edipol_quadrupol">      0.00000000 </i>
    <i name="Eion">      0.00000000 </i>
   </dipole>
   <energy>
    <i name="e_fr_energy">   -635.00157697 </i>
    <i name="e_wo_entrp">   -634.93047320 </i>
    <i name="e_0_energy">   -634.96602508 </i>
   </energy>
  </scstep>
  <scstep>
   <time name="diag">    2.15    2.15</time>
   <time name="diis">    5.61    5.62</time>
   <time name="orth">    0.64    0.64</time>
   <time name="total">    8.92    8.94</time>
   <dipole>
    <v name="dipole">      0.00000000       0.00000000       9.18919066 </v>
    <i name="Tr[quadrupol]"> -12529.09138124 </i>
    <i name="Echarged">      0.00000000 </i>
    <i name="Edipol_quadrupol">      0.00000000 </i>
    <i name="Eion">      0.00000000 </i>
   </dipole>
   <energy>
    <i name="e_fr_energy">   -636.26498913 </i>
    <i name="e_wo_entrp">   -636.19172850 </i>
    <i name="e_0_energy">   -636.22835881 </i>
   </energy>
  </scstep>
  <scstep>
   <time name="diag">    2.15    2.16</time>
   <time name="diis">    5.54    5.55</time>
   <time name="orth">    0.64    0.64</time>
   <time name="total">    8.86    8.88</time>
   <dipole>
    <v name="dipole">      0.00000000       0.00000000       9.63236879 </v>
    <i name="Tr[quadrupol]"> -12528.37040642 </i>
    <i name="Echarged">      0.00000000 </i>
    <i name="Edipol_quadrupol">      0.00000000 </i>
    <i name="Eion">      0.00000000 </i>
   </dipole>
   <energy>
    <i name="e_fr_energy">   -637.34723125 </i>
    <i name="e_wo_entrp">   -637.26872294 </i>
    <i name="e_0_energy">   -637.30797710 </i>
   </energy>
  </scstep>
  <scstep>
   <time name="diag">    2.15    2.15</time>
   <time name="diis">    5.65    5.67</time>
   <time name="orth">    0.64    0.64</time>
   <time name="total">    9.01    9.03</time>
   <dipole>
    <v name="dipole">      0.00000000       0.00000000       9.72194000 </v>
    <i name="Tr[quadrupol]"> -12527.97723860 </i>
    <i name="Echarged">      0.00000000 </i>
    <i name="Edipol_quadrupol">      0.00000000 </i>
    <i name="Eion">      0.00000000 </i>
   </dipole>
   <energy>
    <i name="e_fr_energy">   -637.70032429 </i>
    <i name="e_wo_entrp">   -637.62318562 </i>
    <i name="e_0_energy">   -637.66175495 </i>
   </energy>
  </scstep>
  <scstep>
   <time name="diag">    2.16    2.17</time>
   <time name="diis">    5.64    5.66</time>
   <time name="orth">    0.64    0.64</time>
   <time name="total">    8.97    9.00</time>
   <dipole>
    <v name="dipole">      0.00000000       0.00000000       9.99506757 </v>
    <i name="Tr[quadrupol]"> -12526.93253261 </i>
    <i name="Echarged">      0.00000000 </i>
    <i name="Edipol_quadrupol">      0.00000000 </i>
    <i name="Eion">      0.00000000 </i>
   </dipole>
   <energy>
    <i name="e_fr_energy">   -638.63537356 </i>
    <i name="e_wo_entrp">   -638.55518013 </i>
    <i name="e_0_energy">   -638.59527684 </i>
   </energy>
  </scstep>
  <scstep>
   <time name="diag">    2.14    2.15</time>
   <time name="diis">    5.64    5.65</time>
   <time name="orth">    0.64    0.64</time>
   <time name="total">    8.95    8.97</time>
   <dipole>
    <v name="dipole">      0.00000000       0.00000000      10.32406379 </v>
    <i name="Tr[quadrupol]"> -12525.15362432 </i>
    <i name="Echarged">      0.00000000 </i>
    <i name="Edipol_quadrupol">      0.00000000 </i>
    <i name="Eion">      0.00000000 </i>
   </dipole>
   <energy>
    <i name="e_fr_energy">   -639.78368556 </i>
    <i name="e_wo_entrp">   -639.70007625 </i>
    <i name="e_0_energy">   -639.74188090 </i>
   </energy>
  </scstep>
  <scstep>
   <time name="diag">    2.14    2.15</time>
   <time name="diis">    5.64    5.65</time>
   <time name="orth">    0.64    0.64</time>
   <time name="total">    8.95    8.97</time>
   <dipole>
    <v name="dipole">      0.00000000       0.00000000      10.40645830 </v>
    <i name="Tr[quadrupol]"> -12524.50288996 </i>
    <i name="Echarged">      0.00000000 </i>
    <i name="Edipol_quadrupol">      0.00000000 </i>
    <i name="Eion">      0.00000000 </i>
   </dipole>
   <energy>
    <i name="e_fr_energy">   -640.09013056 </i>
    <i name="e_wo_entrp">   -640.00648027 </i>
    <i name="e_0_energy">   -640.04830541 </i>
   </energy>
  </scstep>
  <scstep>
   <time name="diag">    2.14    2.15</time>
   <time name="diis">    5.59    5.61</time>
   <time name="orth">    0.64    0.64</time>
   <time name="total">    8.90    8.93</time>
   <dipole>
    <v name="dipole">      0.00000000       0.00000000      10.48443534 </v>
    <i name="Tr[quadrupol]"> -12524.24399262 </i>
    <i name="Echarged">      0.00000000 </i>
    <i name="Edipol_quadrupol">      0.00000000 </i>
    <i name="Eion">      0.00000000 </i>
   </dipole>
   <energy>
    <i name="e_fr_energy">   -640.26952767 </i>
    <i name="e_wo_entrp">   -640.18654120 </i>
    <i name="e_0_energy">   -640.22803443 </i>
   </energy>
  </scstep>
  <scstep>
   <time name="diag">    2.15    2.15</time>
   <time name="diis">    5.69    5.70</time>
   <time name="orth">    0.64    0.64</time>
   <time name="total">    9.00    9.03</time>
   <dipole>
    <v name="dipole">      0.00000000       0.00000000      10.45930555 </v>
    <i name="Tr[quadrupol]"> -12523.69331749 </i>
    <i name="Echarged">      0.00000000 </i>
    <i name="Edipol_quadrupol">      0.00000000 </i>
    <i name="Eion">      0.00000000 </i>
   </dipole>
   <energy>
    <i name="e_fr_energy">   -640.18771701 </i>
    <i name="e_wo_entrp">   -640.10447516 </i>
    <i name="e_0_energy">   -640.14609608 </i>
   </energy>
  </scstep>
  <scstep>
   <time name="diag">    2.15    2.16</time>
   <time name="diis">    5.62    5.63</time>
   <time name="orth">    0.64    0.64</time>
   <time name="total">    8.94    8.96</time>
   <dipole>
    <v name="dipole">      0.00000000       0.00000000      10.42716480 </v>
    <i name="Tr[quadrupol]"> -12523.51790007 </i>
    <i name="Echarged">      0.00000000 </i>
    <i name="Edipol_quadrupol">      0.00000000 </i>
    <i name="Eion">      0.00000000 </i>
   </dipole>
   <energy>
    <i name="e_fr_energy">   -640.12439847 </i>
    <i name="e_wo_entrp">   -640.04264390 </i>
    <i name="e_0_energy">   -640.08352119 </i>
   </energy>
  </scstep>
  <scstep>
   <time name="diag">    2.14    2.14</time>
   <time name="diis">    5.57    5.59</time>
   <time name="orth">    0.64    0.64</time>
   <time name="total">    8.88    8.91</time>
   <dipole>
    <v name="dipole">      0.00000000       0.00000000      10.39015620 </v>
    <i name="Tr[quadrupol]"> -12523.49867247 </i>
    <i name="Echarged">      0.00000000 </i>
    <i name="Edipol_quadrupol">      0.00000000 </i>
    <i name="Eion">      0.00000000 </i>
   </dipole>
   <energy>
    <i name="e_fr_energy">   -640.05409040 </i>
    <i name="e_wo_entrp">   -639.97397851 </i>
    <i name="e_0_energy">   -640.01403445 </i>
   </energy>
  </scstep>
  <scstep>
   <time name="diag">    2.14    2.14</time>
   <time name="diis">    5.62    5.64</time>
   <time name="orth">    0.64    0.64</time>
   <time name="total">    8.93    8.96</time>
   <dipole>
    <v name="dipole">      0.00000000       0.00000000      10.38783770 </v>
    <i name="Tr[quadrupol]"> -12524.06368355 </i>
    <i name="Echarged">      0.00000000 </i>
    <i name="Edipol_quadrupol">      0.00000000 </i>
    <i name="Eion">      0.00000000 </i>
   </dipole>
   <energy>
    <i name="e_fr_energy">   -640.04922177 </i>
    <i name="e_wo_entrp">   -639.97212499 </i>
    <i name="e_0_energy">   -640.01067338 </i>
   </energy>
  </scstep>
  <scstep>
   <time name="diag">    2.14    2.14</time>
   <time name="diis">    5.58    5.60</time>
   <time name="orth">    0.64    0.64</time>
   <time name="total">    8.89    8.92</time>
   <dipole>
    <v name="dipole">      0.00000000       0.00000000      10.33931340 </v>
    <i name="Tr[quadrupol]"> -12524.40572014 </i>
    <i name="Echarged">      0.00000000 </i>
    <i name="Edipol_quadrupol">      0.00000000 </i>
    <i name="Eion">      0.00000000 </i>
   </dipole>
   <energy>
    <i name="e_fr_energy">   -639.99487378 </i>
    <i name="e_wo_entrp">   -639.92020838 </i>
    <i name="e_0_energy">   -639.95754108 </i>
   </energy>
  </scstep>
  <scstep>
   <time name="diag">    2.14    2.14</time>
   <time name="diis">    5.58    5.59</time>
   <time name="orth">    0.64    0.64</time>
   <time name="total">    8.89    8.91</time>
   <dipole>
    <v name="dipole">      0.00000000       0.00000000      10.31562404 </v>
    <i name="Tr[quadrupol]"> -12524.56285454 </i>
    <i name="Echarged">      0.00000000 </i>
    <i name="Edipol_quadrupol">      0.00000000 </i>
    <i name="Eion">      0.00000000 </i>
   </dipole>
   <energy>
    <i name="e_fr_energy">   -639.99007293 </i>
    <i name="e_wo_entrp">   -639.91646658 </i>
    <i name="e_0_energy">   -639.95326976 </i>
   </energy>
  </scstep>
  <scstep>
   <time name="diag">    2.14    2.15</time>
   <time name="diis">    5.61    5.63</time>
   <time name="orth">    0.64    0.64</time>
   <time name="total">    8.96    8.98</time>
   <dipole>
    <v name="dipole">      0.00000000       0.00000000      10.28029193 </v>
    <i name="Tr[quadrupol]"> -12524.79383823 </i>
    <i name="Echarged">      0.00000000 </i>
    <i name="Edipol_quadrupol">      0.00000000 </i>
    <i name="Eion">      0.00000000 </i>
   </dipole>
   <energy>
    <i name="e_fr_energy">   -639.98613418 </i>
    <i name="e_wo_entrp">   -639.91305837 </i>
    <i name="e_0_energy">   -639.94959628 </i>
   </energy>
  </scstep>
  <scstep>
   <time name="diag">    2.13    2.14</time>
   <time name="diis">    5.60    5.62</time>
   <time name="orth">    0.64    0.64</time>
   <time name="total">    8.91    8.93</time>
   <dipole>
    <v name="dipole">      0.00000000       0.00000000      10.24625314 </v>
    <i name="Tr[quadrupol]"> -12524.99801517 </i>
    <i name="Echarged">      0.00000000 </i>
    <i name="Edipol_quadrupol">      0.00000000 </i>
    <i name="Eion">      0.00000000 </i>
   </dipole>
   <energy>
    <i name="e_fr_energy">   -639.98922381 </i>
    <i name="e_wo_entrp">   -639.91633502 </i>
    <i name="e_0_energy">   -639.95277942 </i>
   </energy>
  </scstep>
  <scstep>
   <time name="diag">    2.14    2.15</time>
   <time name="diis">    5.59    5.60</time>
   <time name="orth">    0.64    0.64</time>
   <time name="total">    8.91    8.93</time>
   <dipole>
    <v name="dipole">      0.00000000       0.00000000      10.19876904 </v>
    <i name="Tr[quadrupol]"> -12525.08456484 </i>
    <i name="Echarged">      0.00000000 </i>
    <i name="Edipol_quadrupol">      0.00000000 </i>
    <i name="Eion">      0.00000000 </i>
   </dipole>
   <energy>
    <i name="e_fr_energy">   -640.01107532 </i>
    <i name="e_wo_entrp">   -639.93864753 </i>
    <i name="e_0_energy">   -639.97486143 </i>
   </energy>
  </scstep>
  <scstep>
   <time name="diag">    2.14    2.15</time>
   <time name="diis">    5.60    5.61</time>
   <time name="orth">    0.64    0.64</time>
   <time name="total">    8.91    8.93</time>
   <dipole>
    <v name="dipole">      0.00000000       0.00000000      10.16650706 </v>
    <i name="Tr[quadrupol]"> -12525.01906139 </i>
    <i name="Echarged">      0.00000000 </i>
    <i name="Edipol_quadrupol">      0.00000000 </i>
    <i name="Eion">      0.00000000 </i>
   </dipole>
   <energy>
    <i name="e_fr_energy">   -640.03359346 </i>
    <i name="e_wo_entrp">   -639.96133148 </i>
    <i name="e_0_energy">   -639.99746247 </i>
   </energy>
  </scstep>
  <scstep>
   <time name="diag">    2.14    2.14</time>
   <time name="diis">    5.60    5.61</time>
   <time name="orth">    0.64    0.64</time>
   <time name="total">    8.91    8.94</time>
   <dipole>
    <v name="dipole">      0.00000000       0.00000000      10.13890570 </v>
    <i name="Tr[quadrupol]"> -12524.91906579 </i>
    <i name="Echarged">      0.00000000 </i>
    <i name="Edipol_quadrupol">      0.00000000 </i>
    <i name="Eion">      0.00000000 </i>
   </dipole>
   <energy>
    <i name="e_fr_energy">   -640.09967053 </i>
    <i name="e_wo_entrp">   -640.02774637 </i>
    <i name="e_0_energy">   -640.06370845 </i>
   </energy>
  </scstep>
  <scstep>
   <time name="diag">    2.14    2.15</time>
   <time name="diis">    5.63    5.64</time>
   <time name="orth">    0.63    0.64</time>
   <time name="total">    8.95    8.97</time>
   <dipole>
    <v name="dipole">      0.00000000       0.00000000      10.12492177 </v>
    <i name="Tr[quadrupol]"> -12524.79573834 </i>
    <i name="Echarged">      0.00000000 </i>
    <i name="Edipol_quadrupol">      0.00000000 </i>
    <i name="Eion">      0.00000000 </i>
   </dipole>
   <energy>
    <i name="e_fr_energy">   -640.18204495 </i>
    <i name="e_wo_entrp">   -640.11080407 </i>
    <i name="e_0_energy">   -640.14642451 </i>
   </energy>
  </scstep>
  <scstep>
   <time name="diag">    2.14    2.15</time>
   <time name="diis">    5.63    5.65</time>
   <time name="orth">    0.63    0.64</time>
   <time name="total">    8.93    8.96</time>
   <dipole>
    <v name="dipole">      0.00000000       0.00000000      11.22062846 </v>
    <i name="Tr[quadrupol]"> -12538.52143306 </i>
    <i name="Echarged">      0.00000000 </i>
    <i name="Edipol_quadrupol">      0.00000000 </i>
    <i name="Eion">      0.00000000 </i>
   </dipole>
   <energy>
    <i name="e_fr_energy">   -629.79150235 </i>
    <i name="e_wo_entrp">   -629.72419552 </i>
    <i name="e_0_energy">   -629.75784894 </i>
   </energy>
  </scstep>
  <scstep>
   <time name="diag">    2.14    2.15</time>
   <time name="diis">    5.61    5.62</time>
   <time name="orth">    0.64    0.64</time>
   <time name="total">    8.92    8.94</time>
   <dipole>
    <v name="dipole">      0.00000000       0.00000000      11.26782051 </v>
    <i name="Tr[quadrupol]"> -12524.67404755 </i>
    <i name="Echarged">      0.00000000 </i>
    <i name="Edipol_quadrupol">      0.00000000 </i>
    <i name="Eion">      0.00000000 </i>
   </dipole>
   <energy>
    <i name="e_fr_energy">   -640.58770623 </i>
    <i name="e_wo_entrp">   -640.53286052 </i>
    <i name="e_0_energy">   -640.56028338 </i>
   </energy>
  </scstep>
  <scstep>
   <time name="diag">    2.13    2.14</time>
   <time name="diis">    5.67    5.68</time>
   <time name="orth">    0.64    0.64</time>
   <time name="total">    8.97    8.99</time>
   <dipole>
    <v name="dipole">      0.00000000       0.00000000      11.03234909 </v>
    <i name="Tr[quadrupol]"> -12528.24439182 </i>
    <i name="Echarged">      0.00000000 </i>
    <i name="Edipol_quadrupol">      0.00000000 </i>
    <i name="Eion">      0.00000000 </i>
   </dipole>
   <energy>
    <i name="e_fr_energy">   -647.34135084 </i>
    <i name="e_wo_entrp">   -647.28620475 </i>
    <i name="e_0_energy">   -647.31377779 </i>
   </energy>
  </scstep>
  <scstep>
   <time name="diag">    2.13    2.14</time>
   <time name="diis">    5.87    5.89</time>
   <time name="orth">    0.64    0.64</time>
   <time name="total">    9.18    9.20</time>
   <dipole>
    <v name="dipole">      0.00000000       0.00000000      11.03391912 </v>
    <i name="Tr[quadrupol]"> -12528.04258119 </i>
    <i name="Echarged">      0.00000000 </i>
    <i name="Edipol_quadrupol">      0.00000000 </i>
    <i name="Eion">      0.00000000 </i>
   </dipole>
   <energy>
    <i name="e_fr_energy">   -649.04361716 </i>
    <i name="e_wo_entrp">   -648.98605414 </i>
    <i name="e_0_energy">   -649.01483565 </i>
   </energy>
  </scstep>
  <scstep>
   <time name="diag">    2.17    2.18</time>
   <time name="diis">    5.62    5.63</time>
   <time name="orth">    0.64    0.64</time>
   <time name="total">    8.96    8.98</time>
   <dipole>
    <v name="dipole">      0.00000000       0.00000000      10.97262721 </v>
    <i name="Tr[quadrupol]"> -12528.15120553 </i>
    <i name="Echarged">      0.00000000 </i>
    <i name="Edipol_quadrupol">      0.00000000 </i>
    <i name="Eion">      0.00000000 </i>
   </dipole>
   <energy>
    <i name="e_fr_energy">   -648.76651455 </i>
    <i name="e_wo_entrp">   -648.71488434 </i>
    <i name="e_0_energy">   -648.74069944 </i>
   </energy>
  </scstep>
  <scstep>
   <time name="diag">    2.14    2.15</time>
   <time name="diis">    5.64    5.65</time>
   <time name="orth">    0.63    0.64</time>
   <time name="total">    8.94    8.97</time>
   <dipole>
    <v name="dipole">      0.00000000       0.00000000       7.36885029 </v>
[...]
       <r>   -11.0581     0.0000    67.0000 </r>
       <r>   -10.9530     0.0000    67.0000 </r>
       <r>   -10.8479     0.0000    67.0000 </r>
       <r>   -10.7428     0.0000    67.0000 </r>
       <r>   -10.6378     0.0000    67.0000 </r>
       <r>   -10.5327     0.0000    67.0000 </r>
       <r>   -10.4276     0.0000    67.0000 </r>
       <r>   -10.3225     0.0000    67.0000 </r>
       <r>   -10.2175     0.0000    67.0000 </r>
       <r>   -10.1124     0.0000    67.0000 </r>
       <r>   -10.0073     0.0000    67.0000 </r>
       <r>    -9.9022     0.0016    67.0002 </r>
       <r>    -9.7972     0.8708    67.0917 </r>
       <r>    -9.6921     5.2730    67.6457 </r>
       <r>    -9.5870     3.3104    67.9936 </r>
       <r>    -9.4819     2.7318    68.2806 </r>
       <r>    -9.3769     7.7524    69.0952 </r>
       <r>    -9.2718     8.3471    69.9723 </r>
       <r>    -9.1667     3.2034    70.3089 </r>
       <r>    -9.0616    10.3315    71.3945 </r>
       <r>    -8.9565    12.5153    72.7095 </r>
       <r>    -8.8515    18.9962    74.7056 </r>
       <r>    -8.7464    21.1764    76.9307 </r>
       <r>    -8.6413    13.4967    78.3488 </r>
       <r>    -8.5362    35.7316    82.1034 </r>
       <r>    -8.4312    35.1051    85.7921 </r>
       <r>    -8.3261    24.4635    88.3626 </r>
       <r>    -8.2210    28.2089    91.3266 </r>
       <r>    -8.1159    39.9002    95.5192 </r>
       <r>    -8.0109    63.4665   102.1880 </r>
       <r>    -7.9058    52.2369   107.6768 </r>
       <r>    -7.8007    47.6525   112.6839 </r>
       <r>    -7.6956    32.4864   116.0974 </r>
       <r>    -7.5906    27.0543   118.9402 </r>
       <r>    -7.4855    31.2475   122.2235 </r>
       <r>    -7.3804    24.5547   124.8036 </r>
       <r>    -7.2753    25.0555   127.4364 </r>
       <r>    -7.1703    21.5115   129.6967 </r>
       <r>    -7.0652    31.1903   132.9740 </r>
       <r>    -6.9601    25.6529   135.6695 </r>
       <r>    -6.8550    19.4282   137.7110 </r>
       <r>    -6.7500    22.2000   140.0436 </r>
       <r>    -6.6449    25.6135   142.7350 </r>
       <r>    -6.5398    21.3735   144.9808 </r>
       <r>    -6.4347    36.3073   148.7958 </r>
       <r>    -6.3297    29.7277   151.9195 </r>
       <r>    -6.2246    32.5576   155.3405 </r>
       <r>    -6.1195    30.7439   158.5709 </r>
       <r>    -6.0144    35.2352   162.2733 </r>
       <r>    -5.9094    36.0947   166.0660 </r>
       <r>    -5.8043    47.7939   171.0879 </r>
       <r>    -5.6992    38.9802   175.1838 </r>
       <r>    -5.5941    36.3849   179.0070 </r>
       <r>    -5.4891    37.3562   182.9322 </r>
       <r>    -5.3840    39.6014   187.0933 </r>
       <r>    -5.2789    37.2302   191.0053 </r>
       <r>    -5.1738    33.5179   194.5272 </r>
       <r>    -5.0688    37.4748   198.4649 </r>
       <r>    -4.9637    46.4006   203.3405 </r>
       <r>    -4.8586    32.2836   206.7327 </r>
       <r>    -4.7535    23.1376   209.1639 </r>
       <r>    -4.6484    31.6428   212.4888 </r>
       <r>    -4.5434    31.0135   215.7476 </r>
       <r>    -4.4383    33.6904   219.2876 </r>
       <r>    -4.3332    29.1263   222.3481 </r>
       <r>    -4.2281    29.7687   225.4760 </r>
       <r>    -4.1231    32.0694   228.8457 </r>
       <r>    -4.0180    36.1438   232.6436 </r>
       <r>    -3.9129    34.9346   236.3143 </r>
       <r>    -3.8078    28.8537   239.3462 </r>
       <r>    -3.7028    21.1844   241.5721 </r>
       <r>    -3.5977    29.3021   244.6510 </r>
       <r>    -3.4926    30.0990   247.8137 </r>
       <r>    -3.3875    27.7607   250.7307 </r>
       <r>    -3.2825    33.6061   254.2619 </r>
       <r>    -3.1774    25.0112   256.8899 </r>
       <r>    -3.0723    20.8645   259.0823 </r>
       <r>    -2.9672    27.8082   262.0043 </r>
       <r>    -2.8622    24.5161   264.5803 </r>
       <r>    -2.7571    14.8479   266.1405 </r>
       <r>    -2.6520    19.8263   268.2237 </r>
       <r>    -2.5469    24.9913   270.8497 </r>
       <r>    -2.4419    33.2196   274.3403 </r>
       <r>    -2.3368    37.6039   278.2915 </r>
       <r>    -2.2317    57.0614   284.2873 </r>
       <r>    -2.1266    51.9449   289.7454 </r>
       <r>    -2.0216    39.1839   293.8627 </r>
       <r>    -1.9165    44.7884   298.5689 </r>
       <r>    -1.8114    45.1789   303.3161 </r>
       <r>    -1.7063    35.9373   307.0922 </r>
       <r>    -1.6013    41.3812   311.4403 </r>
       <r>    -1.4962    24.5116   314.0159 </r>
       <r>    -1.3911    21.6288   316.2886 </r>
       <r>    -1.2860    28.0453   319.2354 </r>
       <r>    -1.1810    31.9859   322.5964 </r>
       <r>    -1.0759    31.4287   325.8988 </r>
       <r>    -0.9708    28.6085   328.9048 </r>
       <r>    -0.8657    30.1211   332.0698 </r>
       <r>    -0.7607    30.3009   335.2537 </r>
       <r>    -0.6556    30.4540   338.4537 </r>
       <r>    -0.5505    24.5456   341.0328 </r>
       <r>    -0.4454    33.9361   344.5987 </r>
       <r>    -0.3403    34.1824   348.1904 </r>
       <r>    -0.2353    32.0811   351.5613 </r>
       <r>    -0.1302    29.9719   354.7107 </r>
       <r>    -0.0251    26.4012   357.4848 </r>
       <r>     0.0800    26.3394   360.2524 </r>
       <r>     0.1850    22.6045   362.6276 </r>
       <r>     0.2901    12.6626   363.9581 </r>
       <r>     0.3952     5.5006   364.5361 </r>
       <r>     0.5003     6.2613   365.1940 </r>
       <r>     0.6053    13.0371   366.5639 </r>
       <r>     0.7104     6.9570   367.2949 </r>
       <r>     0.8155     6.5970   367.9881 </r>
       <r>     0.9206    13.1067   369.3653 </r>
       <r>     1.0256    13.0905   370.7408 </r>
       <r>     1.1307     7.6041   371.5398 </r>
       <r>     1.2358     5.7217   372.1410 </r>
       <r>     1.3409    13.3530   373.5440 </r>
       <r>     1.4459    15.5968   375.1829 </r>
       <r>     1.5510    14.6415   376.7214 </r>
       <r>     1.6561    15.1833   378.3167 </r>
       <r>     1.7612    14.6293   379.8539 </r>
       <r>     1.8662    21.3312   382.0953 </r>
       <r>     1.9713    11.1501   383.2669 </r>
       <r>     2.0764    27.5448   386.1612 </r>
       <r>     2.1815    19.1059   388.1688 </r>
       <r>     2.2865    14.3060   389.6720 </r>
       <r>     2.3916    15.9462   391.3475 </r>
       <r>     2.4967    20.2122   393.4714 </r>
       <r>     2.6018    15.7027   395.1213 </r>
       <r>     2.7068    16.1291   396.8161 </r>
       <r>     2.8119    18.8976   398.8018 </r>
       <r>     2.9170    24.6123   401.3879 </r>
       <r>     3.0221    26.9898   404.2239 </r>
       <r>     3.1271    22.8983   406.6299 </r>
       <r>     3.2322    20.0167   408.7332 </r>
       <r>     3.3373    22.3905   411.0859 </r>
       <r>     3.4424    16.2571   412.7941 </r>
       <r>     3.5474    29.5552   415.8997 </r>
       <r>     3.6525    25.7043   418.6006 </r>
       <r>     3.7576    11.3904   419.7974 </r>
       <r>     3.8627     5.6712   420.3933 </r>
       <r>     3.9678     5.1355   420.9329 </r>
       <r>     4.0728     4.6736   421.4240 </r>
       <r>     4.1779    11.6693   422.6502 </r>
       <r>     4.2830     7.1426   423.4007 </r>
       <r>     4.3881     3.5559   423.7743 </r>
       <r>     4.4931     2.9885   424.0883 </r>
       <r>     4.5982     7.9576   424.9245 </r>
       <r>     4.7033     0.7177   424.9999 </r>
       <r>     4.8084     0.5233   425.0549 </r>
       <r>     4.9134     2.0551   425.2708 </r>
       <r>     5.0185     5.7504   425.8751 </r>
       <r>     5.1236     2.6003   426.1483 </r>
       <r>     5.2287     3.9246   426.5607 </r>
       <r>     5.3337     1.3226   426.6996 </r>
       <r>     5.4388     3.5686   427.0746 </r>
       <r>     5.5439     3.9915   427.4940 </r>
       <r>     5.6490     1.9924   427.7034 </r>
       <r>     5.7540     6.1747   428.3522 </r>
       <r>     5.8591     9.6066   429.3616 </r>
       <r>     5.9642     6.4425   430.0385 </r>
       <r>     6.0693     3.8213   430.4401 </r>
       <r>     6.1743     8.9372   431.3792 </r>
       <r>     6.2794     4.1971   431.8202 </r>
       <r>     6.3845    11.3916   433.0171 </r>
       <r>     6.4896     7.3735   433.7919 </r>
       <r>     6.5946     4.6108   434.2764 </r>
       <r>     6.6997     6.8624   434.9975 </r>
       <r>     6.8048    10.0708   436.0557 </r>
       <r>     6.9099     5.8852   436.6741 </r>
       <r>     7.0149     7.7344   437.4868 </r>
       <r>     7.1200     8.9116   438.4232 </r>
       <r>     7.2251     9.8268   439.4557 </r>
       <r>     7.3302     3.1084   439.7823 </r>
       <r>     7.4352     2.0096   439.9935 </r>
       <r>     7.5403     0.0620   440.0000 </r>
       <r>     7.6454     0.0000   440.0000 </r>
       <r>     7.7505     0.0000   440.0000 </r>
       <r>     7.8555     0.0000   440.0000 </r>
       <r>     7.9606     0.0000   440.0000 </r>
       <r>     8.0657     0.0000   440.0000 </r>
       <r>     8.1708     0.0000   440.0000 </r>
       <r>     8.2759     0.0000   440.0000 </r>
       <r>     8.3809     0.0000   440.0000 </r>
       <r>     8.4860     0.0000   440.0000 </r>
       <r>     8.5911     0.0000   440.0000 </r>
       <r>     8.6962     0.0000   440.0000 </r>
       <r>     8.8012     0.0000   440.0000 </r>
      </set>
     </set>
    </array>
   </total>
  </dos>
 </calculation>
 <structure name="finalpos" >
  <crystal>
   <varray name="basis" >
    <v>      12.80853200       0.00000000       0.00000000 </v>
    <v>       0.00000000       6.47024300       0.00000000 </v>
    <v>       0.00000000       0.00000000      25.88097200 </v>
   </varray>
   <i name="volume">   2144.86781344 </i>
   <varray name="rec_basis" >
    <v>       0.07807296       0.00000000       0.00000000 </v>
    <v>       0.00000000       0.15455370       0.00000000 </v>
    <v>       0.00000000       0.00000000       0.03863843 </v>
   </varray>
  </crystal>
  <varray name="positions" >
   <v>       0.12500000       0.50000000       0.18750000 </v>
   <v>       0.37500000       0.50000000       0.18750000 </v>
   <v>       0.12500000       0.00000000       0.06250000 </v>
   <v>       0.37500000       0.00000000       0.06250000 </v>
   <v>       0.00000000       0.50000000       0.06250000 </v>
   <v>       0.25000000       0.50000000       0.06250000 </v>
   <v>       0.00000000       0.00000000       0.18750000 </v>
   <v>       0.25000000       0.00000000       0.18750000 </v>
   <v>       0.12555575       0.50000000       0.43802731 </v>
   <v>       0.37447025       0.50000000       0.43810191 </v>
   <v>       0.12445252       0.00000000       0.31281090 </v>
   <v>       0.37551204       0.00000000       0.31274930 </v>
   <v>      -0.00012871       0.50000000       0.31291651 </v>
   <v>       0.24996880       0.50000000       0.31285840 </v>
   <v>       0.99334609       0.00000000       0.44197846 </v>
   <v>       0.25011911       0.00000000       0.44074581 </v>
   <v>       0.00000000       0.50000000       0.13961000 </v>
   <v>       0.25000000       0.50000000       0.13961000 </v>
   <v>       0.00000000       0.00000000       0.01461000 </v>
   <v>       0.25000000       0.00000000       0.01461000 </v>
   <v>       0.12500000       0.80844000       0.18750000 </v>
   <v>       0.37500000       0.80844000       0.18750000 </v>
   <v>       0.12500000       0.30844000       0.06250000 </v>
   <v>       0.37500000       0.30844000       0.06250000 </v>
   <v>       0.00000000       0.50000000       0.23539000 </v>
   <v>       0.25000000       0.50000000       0.23539000 </v>
   <v>       0.00000000       0.00000000       0.11039000 </v>
   <v>       0.25000000       0.00000000       0.11039000 </v>
   <v>       0.12500000       0.19156000       0.18750000 </v>
   <v>       0.37500000       0.19156000       0.18750000 </v>
   <v>       0.12500000       0.69156000       0.06250000 </v>
   <v>       0.37500000       0.69156000       0.06250000 </v>
   <v>       0.00217304       0.50000000       0.38946860 </v>
   <v>       0.25016578       0.50000000       0.38930389 </v>
   <v>       0.00022276       0.00000000       0.26488534 </v>
   <v>       0.24992651       0.00000000       0.26497916 </v>
   <v>       0.12384393       0.80825902       0.43526528 </v>
   <v>       0.37645128       0.80901152       0.43579451 </v>
   <v>       0.12469312       0.30770087       0.31235302 </v>
   <v>       0.37522280       0.30762169       0.31236252 </v>
   <v>       0.00325267       0.50000000       0.48471251 </v>
   <v>       0.24972286       0.50000000       0.48338704 </v>
   <v>       0.99831962       0.00000000       0.36049345 </v>
   <v>       0.25015984       0.00000000       0.36083275 </v>
   <v>       0.12384393       0.19174098       0.43526528 </v>
   <v>       0.37645128       0.19098848       0.43579451 </v>
   <v>       0.12469312       0.69229913       0.31235302 </v>
   <v>       0.37522280       0.69237831       0.31236252 </v>
   <v>       0.24933578       0.00000000       0.50992537 </v>
   <v>       0.00700264       0.00000000       0.51083502 </v>
   <v>       0.62500000       0.50000000       0.18750000 </v>
   <v>       0.87500000       0.50000000       0.18750000 </v>
   <v>       0.62500000       0.00000000       0.06250000 </v>
   <v>       0.87500000       0.00000000       0.06250000 </v>
   <v>       0.50000000       0.50000000       0.06250000 </v>
   <v>       0.75000000       0.50000000       0.06250000 </v>
   <v>       0.50000000       0.00000000       0.18750000 </v>
   <v>       0.75000000       0.00000000       0.18750000 </v>
   <v>       0.62366845       0.50000000       0.43939392 </v>
   <v>       0.87630969       0.50000000       0.43935093 </v>
   <v>       0.62704375       0.00000000       0.31241297 </v>
   <v>       0.87285487       0.00000000       0.31247498 </v>
   <v>       0.50001805       0.50000000       0.31286248 </v>
   <v>       0.74994587       0.50000000       0.31345887 </v>
   <v>       0.50644061       0.00000000       0.44191230 </v>
   <v>       0.50000000       0.50000000       0.13961000 </v>
   <v>       0.75000000       0.50000000       0.13961000 </v>
   <v>       0.50000000       0.00000000       0.01461000 </v>
   <v>       0.75000000       0.00000000       0.01461000 </v>
   <v>       0.62500000       0.80844000       0.18750000 </v>
   <v>       0.87500000       0.80844000       0.18750000 </v>
   <v>       0.62500000       0.30844000       0.06250000 </v>
   <v>       0.87500000       0.30844000       0.06250000 </v>
   <v>       0.50000000       0.50000000       0.23539000 </v>
   <v>       0.75000000       0.50000000       0.23539000 </v>
   <v>       0.50000000       0.00000000       0.11039000 </v>
   <v>       0.75000000       0.00000000       0.11039000 </v>
   <v>       0.62500000       0.19156000       0.18750000 </v>
   <v>       0.87500000       0.19156000       0.18750000 </v>
   <v>       0.62500000       0.69156000       0.06250000 </v>
   <v>       0.87500000       0.69156000       0.06250000 </v>
   <v>       0.49765104       0.50000000       0.38944788 </v>
   <v>       0.74992725       0.50000000       0.39039575 </v>
   <v>       0.49964306       0.00000000       0.26484779 </v>
   <v>       0.75002669       0.00000000       0.26404392 </v>
   <v>       0.61580780       0.79452920       0.43608955 </v>
   <v>       0.88394674       0.79505632       0.43649149 </v>
   <v>       0.62509585       0.30751016       0.31234669 </v>
   <v>       0.87477972       0.30747386       0.31244743 </v>
   <v>       0.49722931       0.50000000       0.48475551 </v>
   <v>       0.74984091       0.50000000       0.48478819 </v>
   <v>       0.50142821       0.00000000       0.36038457 </v>
   <v>       0.74979949       0.00000000       0.35779453 </v>
   <v>       0.61580780       0.20547080       0.43608955 </v>
   <v>       0.88394674       0.20494368       0.43649149 </v>
   <v>       0.62509585       0.69248984       0.31234669 </v>
   <v>       0.87477972       0.69252614       0.31244743 </v>
   <v>       0.49647435       0.00000000       0.51101439 </v>
  </varray>
  <varray name="selective"  type="logical" >
   <v type="logical" >  F  F  F </v>
   <v type="logical" >  F  F  F </v>
   <v type="logical" >  F  F  F </v>
   <v type="logical" >  F  F  F </v>
   <v type="logical" >  F  F  F </v>
   <v type="logical" >  F  F  F </v>
   <v type="logical" >  F  F  F </v>
   <v type="logical" >  F  F  F </v>
   <v type="logical" >  T  T  T </v>
   <v type="logical" >  T  T  T </v>
   <v type="logical" >  T  T  T </v>
   <v type="logical" >  T  T  T </v>
   <v type="logical" >  T  T  T </v>
   <v type="logical" >  T  T  T </v>
   <v type="logical" >  T  T  T </v>
   <v type="logical" >  T  T  T </v>
   <v type="logical" >  F  F  F </v>
   <v type="logical" >  F  F  F </v>
   <v type="logical" >  F  F  F </v>
   <v type="logical" >  F  F  F </v>
   <v type="logical" >  F  F  F </v>
   <v type="logical" >  F  F  F </v>
   <v type="logical" >  F  F  F </v>
   <v type="logical" >  F  F  F </v>
   <v type="logical" >  F  F  F </v>
   <v type="logical" >  F  F  F </v>
   <v type="logical" >  F  F  F </v>
   <v type="logical" >  F  F  F </v>
   <v type="logical" >  F  F  F </v>
   <v type="logical" >  F  F  F </v>
   <v type="logical" >  F  F  F </v>
   <v type="logical" >  F  F  F </v>
   <v type="logical" >  T  T  T </v>
   <v type="logical" >  T  T  T </v>
   <v type="logical" >  T  T  T </v>
   <v type="logical" >  T  T  T </v>
   <v type="logical" >  T  T  T </v>
   <v type="logical" >  T  T  T </v>
   <v type="logical" >  T  T  T </v>
   <v type="logical" >  T  T  T </v>
   <v type="logical" >  T  T  T </v>
   <v type="logical" >  T  T  T </v>
   <v type="logical" >  T  T  T </v>
   <v type="logical" >  T  T  T </v>
   <v type="logical" >  T  T  T </v>
   <v type="logical" >  T  T  T </v>
   <v type="logical" >  T  T  T </v>
   <v type="logical" >  T  T  T </v>
   <v type="logical" >  T  T  T </v>
   <v type="logical" >  T  T  T </v>
   <v type="logical" >  F  F  F </v>
   <v type="logical" >  F  F  F </v>
   <v type="logical" >  F  F  F </v>
   <v type="logical" >  F  F  F </v>
   <v type="logical" >  F  F  F </v>
   <v type="logical" >  F  F  F </v>
   <v type="logical" >  F  F  F </v>
   <v type="logical" >  F  F  F </v>
   <v type="logical" >  T  T  T </v>
   <v type="logical" >  T  T  T </v>
   <v type="logical" >  T  T  T </v>
   <v type="logical" >  T  T  T </v>
   <v type="logical" >  T  T  T </v>
   <v type="logical" >  T  T  T </v>
   <v type="logical" >  T  T  T </v>
   <v type="logical" >  F  F  F </v>
   <v type="logical" >  F  F  F </v>
   <v type="logical" >  F  F  F </v>
   <v type="logical" >  F  F  F </v>
   <v type="logical" >  F  F  F </v>
   <v type="logical" >  F  F  F </v>
   <v type="logical" >  F  F  F </v>
   <v type="logical" >  F  F  F </v>
   <v type="logical" >  F  F  F </v>
   <v type="logical" >  F  F  F </v>
   <v type="logical" >  F  F  F </v>
   <v type="logical" >  F  F  F </v>
   <v type="logical" >  F  F  F </v>
   <v type="logical" >  F  F  F </v>
   <v type="logical" >  F  F  F </v>
   <v type="logical" >  F  F  F </v>
   <v type="logical" >  T  T  T </v>
   <v type="logical" >  T  T  T </v>
   <v type="logical" >  T  T  T </v>
   <v type="logical" >  T  T  T </v>
   <v type="logical" >  T  T  T </v>
   <v type="logical" >  T  T  T </v>
   <v type="logical" >  T  T  T </v>
   <v type="logical" >  T  T  T </v>
   <v type="logical" >  T  T  T </v>
   <v type="logical" >  T  T  T </v>
   <v type="logical" >  T  T  T </v>
   <v type="logical" >  T  T  T </v>
   <v type="logical" >  T  T  T </v>
   <v type="logical" >  T  T  T </v>
   <v type="logical" >  T  T  T </v>
   <v type="logical" >  T  T  T </v>
   <v type="logical" >  T  T  T </v>
  </varray>
  <nose>
   <v>      -3.00000000       0.00000000       0.00010000       0.00010000 </v>
  </nose>
 </structure>
</modeling>
