 vasp.5.4.4.18Apr17-6-g9f103f2a35 (build Feb 25 2019 10:51:38) complex          
  
 executed on             LinuxIFC date 2023.03.14  11:40:47
 running on   40 total cores
 distrk:  each k-point on   40 cores,    1 groups
 distr:  one band on NCORES_PER_BAND=   1 cores,   40 groups


--------------------------------------------------------------------------------------------------------


 INCAR:
 POTCAR:    PAW_PBE Ir 06Sep2000                  
 POTCAR:    PAW_PBE O 08Apr2002                   
 POTCAR:    PAW_PBE Ir 06Sep2000                  
 POTCAR:    PAW_PBE O 08Apr2002                   

 ----------------------------------------------------------------------------- 
|                                                                             |
|           W    W    AA    RRRRR   N    N  II  N    N   GGGG   !!!           |
|           W    W   A  A   R    R  NN   N  II  NN   N  G    G  !!!           |
|           W    W  A    A  R    R  N N  N  II  N N  N  G       !!!           |
|           W WW W  AAAAAA  RRRRR   N  N N  II  N  N N  G  GGG   !            |
|           WW  WW  A    A  R   R   N   NN  II  N   NN  G    G                |
|           W    W  A    A  R    R  N    N  II  N    N   GGGG   !!!           |
|                                                                             |
|      For optimal performance we recommend to set                            |
|        NCORE= 4 - approx SQRT( number of cores)                             |
|      NCORE specifies how many cores store one orbital (NPAR=cpu/NCORE).     |
|      This setting can  greatly improve the performance of VASP for DFT.     |
|      The default,   NCORE=1            might be grossly inefficient         |
|      on modern multi-core architectures or massively parallel machines.     |
|      Do your own testing !!!!                                               |
|      Unfortunately you need to use the default for GW and RPA calculations. |
|      (for HF NCORE is supported but not extensively tested yet)             |
|                                                                             |
 ----------------------------------------------------------------------------- 

 POTCAR:    PAW_PBE Ir 06Sep2000                  
   VRHFIN =Ir: s1d8                                                             
   LEXCH  = PE                                                                  
   EATOM  =   560.1833 eV,   41.1723 Ry                                         
                                                                                
   TITEL  = PAW_PBE Ir 06Sep2000                                                
   LULTRA =        F    use ultrasoft PP ?                                      
   IUNSCR =        1    unscreen: 0-lin 1-nonlin 2-no                           
   RPACOR =    2.250    partial core radius                                     
   POMASS =  192.220; ZVAL   =    9.000    mass and valenz                      
   RCORE  =    2.600    outmost cutoff radius                                   
   RWIGS  =    2.690; RWIGS  =    1.423    wigner-seitz radius (au A)           
   ENMAX  =  210.864; ENMIN  =  158.148 eV                                      
   RCLOC  =    1.857    cutoff for local pot                                    
   LCOR   =        T    correct aug charges                                     
   LPAW   =        T    paw PP                                                  
   EAUG   =  318.962                                                            
   DEXC   =    0.000                                                            
   RMAX   =    2.667    core radius for proj-oper                               
   RAUG   =    1.300    factor for augmentation sphere                          
   RDEP   =    2.748    radius for radial grids                                 
   RDEPT  =    2.300    core radius for aug-charge                              
                                                                                
   Atomic configuration                                                         
   16 entries                                                                   
     n  l   j            E        occ.                                          
     1  0  0.50    -76100.0449   2.0000                                         
     2  0  0.50    -13308.1683   2.0000                                         
     2  1  1.50    -11558.0021   6.0000                                         
     3  0  0.50     -3110.7274   2.0000                                         
     3  1  1.50     -2599.2109   6.0000                                         
     3  2  2.50     -2037.1515  10.0000                                         
     4  0  0.50      -661.6001   2.0000                                         
     4  1  1.50      -493.8981   6.0000                                         
     4  2  2.50      -288.1909  10.0000                                         
     4  3  3.50       -59.5718  14.0000                                         
     5  0  0.50       -95.3879   2.0000                                         
     5  1  1.50       -52.2747   6.0000                                         
     5  2  2.50        -5.4180   8.0000                                         
     6  0  0.50        -5.5479   1.0000                                         
     6  1  1.50        -6.8029   0.0000                                         
     5  3  2.50        -1.3606   0.0000                                         
   Description                                                                  
     l       E           TYP  RCUT    TYP  RCUT                                 
     2     -5.4179967     23  2.600                                             
     2     -6.7785793     23  2.600                                             
     0     -5.5478636     23  2.600                                             
     0      2.2542272     23  2.600                                             
     1     -2.7211652     23  2.600                                             
     1     20.4087390     23  2.600                                             
  local pseudopotential read in
  partial core-charges read in
  partial kinetic energy density read in
  atomic valenz-charges read in
  non local Contribution for L=           2  read in
    real space projection operators read in
  non local Contribution for L=           2  read in
    real space projection operators read in
  non local Contribution for L=           0  read in
    real space projection operators read in
  non local Contribution for L=           0  read in
    real space projection operators read in
  non local Contribution for L=           1  read in
    real space projection operators read in
  non local Contribution for L=           1  read in
    real space projection operators read in
    PAW grid and wavefunctions read in
 
   number of l-projection  operators is LMAX  =           6
   number of lm-projection operators is LMMAX =          18
 
 POTCAR:    PAW_PBE O 08Apr2002                   
   VRHFIN =O: s2p4                                                              
   LEXCH  = PE                                                                  
   EATOM  =   432.3788 eV,   31.7789 Ry                                         
                                                                                
   TITEL  = PAW_PBE O 08Apr2002                                                 
   LULTRA =        F    use ultrasoft PP ?                                      
   IUNSCR =        1    unscreen: 0-lin 1-nonlin 2-no                           
   RPACOR =    1.200    partial core radius                                     
   POMASS =   16.000; ZVAL   =    6.000    mass and valenz                      
   RCORE  =    1.520    outmost cutoff radius                                   
   RWIGS  =    1.550; RWIGS  =    0.820    wigner-seitz radius (au A)           
   ENMAX  =  400.000; ENMIN  =  300.000 eV                                      
   ICORE  =        2    local potential                                         
   LCOR   =        T    correct aug charges                                     
   LPAW   =        T    paw PP                                                  
   EAUG   =  605.392                                                            
   DEXC   =    0.000                                                            
   RMAX   =    1.553    core radius for proj-oper                               
   RAUG   =    1.300    factor for augmentation sphere                          
   RDEP   =    1.550    radius for radial grids                                 
   RDEPT  =    1.329    core radius for aug-charge                              
                                                                                
   Atomic configuration                                                         
    4 entries                                                                   
     n  l   j            E        occ.                                          
     1  0  0.50      -514.6923   2.0000                                         
     2  0  0.50       -23.9615   2.0000                                         
     2  1  0.50        -9.0305   4.0000                                         
     3  2  1.50        -9.5241   0.0000                                         
   Description                                                                  
     l       E           TYP  RCUT    TYP  RCUT                                 
     0    -23.9615318     23  1.200                                             
     0     -9.5240782     23  1.200                                             
     1     -9.0304911     23  1.520                                             
     1      8.1634956     23  1.520                                             
     2     -9.5240782      7  1.500                                             
  local pseudopotential read in
  partial core-charges read in
  partial kinetic energy density read in
  kinetic energy density of atom read in
  atomic valenz-charges read in
  non local Contribution for L=           0  read in
    real space projection operators read in
  non local Contribution for L=           0  read in
    real space projection operators read in
  non local Contribution for L=           1  read in
    real space projection operators read in
  non local Contribution for L=           1  read in
    real space projection operators read in
    PAW grid and wavefunctions read in
 
   number of l-projection  operators is LMAX  =           4
   number of lm-projection operators is LMMAX =           8
 
 POTCAR:    PAW_PBE Ir 06Sep2000                  
   VRHFIN =Ir: s1d8                                                             
   LEXCH  = PE                                                                  
   EATOM  =   560.1833 eV,   41.1723 Ry                                         
                                                                                
   TITEL  = PAW_PBE Ir 06Sep2000                                                
   LULTRA =        F    use ultrasoft PP ?                                      
   IUNSCR =        1    unscreen: 0-lin 1-nonlin 2-no                           
   RPACOR =    2.250    partial core radius                                     
   POMASS =  192.220; ZVAL   =    9.000    mass and valenz                      
   RCORE  =    2.600    outmost cutoff radius                                   
   RWIGS  =    2.690; RWIGS  =    1.423    wigner-seitz radius (au A)           
   ENMAX  =  210.864; ENMIN  =  158.148 eV                                      
   RCLOC  =    1.857    cutoff for local pot                                    
   LCOR   =        T    correct aug charges                                     
   LPAW   =        T    paw PP                                                  
   EAUG   =  318.962                                                            
   DEXC   =    0.000                                                            
   RMAX   =    2.667    core radius for proj-oper                               
   RAUG   =    1.300    factor for augmentation sphere                          
   RDEP   =    2.748    radius for radial grids                                 
   RDEPT  =    2.300    core radius for aug-charge                              
                                                                                
   Atomic configuration                                                         
   16 entries                                                                   
     n  l   j            E        occ.                                          
     1  0  0.50    -76100.0449   2.0000                                         
     2  0  0.50    -13308.1683   2.0000                                         
     2  1  1.50    -11558.0021   6.0000                                         
     3  0  0.50     -3110.7274   2.0000                                         
     3  1  1.50     -2599.2109   6.0000                                         
     3  2  2.50     -2037.1515  10.0000                                         
     4  0  0.50      -661.6001   2.0000                                         
     4  1  1.50      -493.8981   6.0000                                         
     4  2  2.50      -288.1909  10.0000                                         
     4  3  3.50       -59.5718  14.0000                                         
     5  0  0.50       -95.3879   2.0000                                         
     5  1  1.50       -52.2747   6.0000                                         
     5  2  2.50        -5.4180   8.0000                                         
     6  0  0.50        -5.5479   1.0000                                         
     6  1  1.50        -6.8029   0.0000                                         
     5  3  2.50        -1.3606   0.0000                                         
   Description                                                                  
     l       E           TYP  RCUT    TYP  RCUT                                 
     2     -5.4179967     23  2.600                                             
     2     -6.7785793     23  2.600                                             
     0     -5.5478636     23  2.600                                             
     0      2.2542272     23  2.600                                             
     1     -2.7211652     23  2.600                                             
     1     20.4087390     23  2.600                                             
  local pseudopotential read in
  partial core-charges read in
  partial kinetic energy density read in
  atomic valenz-charges read in
  non local Contribution for L=           2  read in
    real space projection operators read in
  non local Contribution for L=           2  read in
    real space projection operators read in
  non local Contribution for L=           0  read in
    real space projection operators read in
  non local Contribution for L=           0  read in
    real space projection operators read in
  non local Contribution for L=           1  read in
    real space projection operators read in
  non local Contribution for L=           1  read in
    real space projection operators read in
    PAW grid and wavefunctions read in
 
   number of l-projection  operators is LMAX  =           6
   number of lm-projection operators is LMMAX =          18
 
 POTCAR:    PAW_PBE O 08Apr2002                   
   VRHFIN =O: s2p4                                                              
   LEXCH  = PE                                                                  
   EATOM  =   432.3788 eV,   31.7789 Ry                                         
                                                                                
   TITEL  = PAW_PBE O 08Apr2002                                                 
   LULTRA =        F    use ultrasoft PP ?                                      
   IUNSCR =        1    unscreen: 0-lin 1-nonlin 2-no                           
   RPACOR =    1.200    partial core radius                                     
   POMASS =   16.000; ZVAL   =    6.000    mass and valenz                      
   RCORE  =    1.520    outmost cutoff radius                                   
   RWIGS  =    1.550; RWIGS  =    0.820    wigner-seitz radius (au A)           
   ENMAX  =  400.000; ENMIN  =  300.000 eV                                      
   ICORE  =        2    local potential                                         
   LCOR   =        T    correct aug charges                                     
   LPAW   =        T    paw PP                                                  
   EAUG   =  605.392                                                            
   DEXC   =    0.000                                                            
   RMAX   =    1.553    core radius for proj-oper                               
   RAUG   =    1.300    factor for augmentation sphere                          
   RDEP   =    1.550    radius for radial grids                                 
   RDEPT  =    1.329    core radius for aug-charge                              
                                                                                
   Atomic configuration                                                         
    4 entries                                                                   
     n  l   j            E        occ.                                          
     1  0  0.50      -514.6923   2.0000                                         
     2  0  0.50       -23.9615   2.0000                                         
     2  1  0.50        -9.0305   4.0000                                         
     3  2  1.50        -9.5241   0.0000                                         
   Description                                                                  
     l       E           TYP  RCUT    TYP  RCUT                                 
     0    -23.9615318     23  1.200                                             
     0     -9.5240782     23  1.200                                             
     1     -9.0304911     23  1.520                                             
     1      8.1634956     23  1.520                                             
     2     -9.5240782      7  1.500                                             
  local pseudopotential read in
  partial core-charges read in
  partial kinetic energy density read in
  kinetic energy density of atom read in
  atomic valenz-charges read in
  non local Contribution for L=           0  read in
    real space projection operators read in
  non local Contribution for L=           0  read in
    real space projection operators read in
  non local Contribution for L=           1  read in
    real space projection operators read in
  non local Contribution for L=           1  read in
    real space projection operators read in
    PAW grid and wavefunctions read in
 
   number of l-projection  operators is LMAX  =           4
   number of lm-projection operators is LMMAX =           8
 
 Optimization of the real space projectors (new method)

 maximal supplied QI-value         = 14.36
 optimisation between [QCUT,QGAM] = [ 11.35, 22.84] = [ 36.05,146.02] Ry 
 Optimized for a Real-space Cutoff    1.52 Angstroem

   l    n(q)    QCUT    max X(q) W(low)/X(q) W(high)/X(q)  e(spline) 
   2      9    11.346   134.116    0.47E-03    0.13E-03    0.92E-06
   2      9    11.346   130.192    0.47E-03    0.13E-03    0.92E-06
   0     10    11.346    60.310    0.74E-04    0.13E-03    0.69E-06
   0     10    11.346    39.218    0.68E-04    0.12E-03    0.65E-06
   1     10    11.346    18.439    0.15E-03    0.34E-04    0.20E-06
   1     10    11.346    12.760    0.12E-03    0.31E-04    0.16E-06
 Optimization of the real space projectors (new method)

 maximal supplied QI-value         = 24.76
 optimisation between [QCUT,QGAM] = [ 11.39, 22.77] = [ 36.31,145.25] Ry 
 Optimized for a Real-space Cutoff    1.00 Angstroem

   l    n(q)    QCUT    max X(q) W(low)/X(q) W(high)/X(q)  e(spline) 
   0      7    11.387    20.381    0.39E-03    0.13E-02    0.15E-06
   0      7    11.387    15.268    0.42E-03    0.14E-02    0.17E-06
   1      6    11.387     5.964    0.41E-03    0.11E-02    0.17E-06
   1      6    11.387     5.382    0.39E-03    0.87E-03    0.15E-06
 Optimization of the real space projectors (new method)

 maximal supplied QI-value         = 14.36
 optimisation between [QCUT,QGAM] = [ 11.35, 22.84] = [ 36.05,146.02] Ry 
 Optimized for a Real-space Cutoff    1.52 Angstroem

   l    n(q)    QCUT    max X(q) W(low)/X(q) W(high)/X(q)  e(spline) 
   2      9    11.346   134.116    0.47E-03    0.13E-03    0.92E-06
   2      9    11.346   130.192    0.47E-03    0.13E-03    0.92E-06
   0     10    11.346    60.310    0.74E-04    0.13E-03    0.69E-06
   0     10    11.346    39.218    0.68E-04    0.12E-03    0.65E-06
   1     10    11.346    18.439    0.15E-03    0.34E-04    0.20E-06
   1     10    11.346    12.760    0.12E-03    0.31E-04    0.16E-06
 Optimization of the real space projectors (new method)

 maximal supplied QI-value         = 24.76
 optimisation between [QCUT,QGAM] = [ 11.39, 22.77] = [ 36.31,145.25] Ry 
 Optimized for a Real-space Cutoff    1.00 Angstroem

   l    n(q)    QCUT    max X(q) W(low)/X(q) W(high)/X(q)  e(spline) 
   0      7    11.387    20.381    0.39E-03    0.13E-02    0.15E-06
   0      7    11.387    15.268    0.42E-03    0.14E-02    0.17E-06
   1      6    11.387     5.964    0.41E-03    0.11E-02    0.17E-06
   1      6    11.387     5.382    0.39E-03    0.87E-03    0.15E-06

 ----------------------------------------------------------------------------- 
|                                                                             |
|  ADVICE TO THIS USER RUNNING 'VASP/VAMP'   (HEAR YOUR MASTER'S VOICE ...):  |
|                                                                             |
|      You enforced a specific xc-type in the INCAR file,                     |
|      a different type was found on the POTCAR file                          |
|          I HOPE YOU KNOW, WHAT YOU ARE  DOING                               |
|                                                                             |
 ----------------------------------------------------------------------------- 

  PAW_PBE Ir 06Sep2000                  :
 energy of atom  1       EATOM= -560.1833
 kinetic energy error for atom=    0.0018 (will be added to EATOM!!)
  PAW_PBE O 08Apr2002                   :
 energy of atom  2       EATOM= -432.3788
 kinetic energy error for atom=    0.0224 (will be added to EATOM!!)
  PAW_PBE Ir 06Sep2000                  :
 energy of atom  3       EATOM= -560.1833
 kinetic energy error for atom=    0.0018 (will be added to EATOM!!)
  PAW_PBE O 08Apr2002                   :
 energy of atom  4       EATOM= -432.3788
 kinetic energy error for atom=    0.0224 (will be added to EATOM!!)
 
 
 POSCAR: Ir  O Ir  O                             
  positions in cartesian coordinates
  No initial velocities read in
 exchange correlation table for  LEXCH =        9
   RHO(1)=    0.500       N(1)  =     2000
   RHO(2)=  100.500       N(2)  =     4000

 VTST: version 3.2, (02/03/18)

 CHAIN: initializing optimizer
 
 OPT: Using VASP Dynamics algorithm
 CHAIN: Read ICHAIN            0
 
 POSCAR: Ir  O Ir  O                             
  positions in cartesian coordinates
  No initial velocities read in
 


--------------------------------------------------------------------------------------------------------


 ion  position               nearest neighbor table
   1  0.125  0.500  0.188-  21 2.00  29 2.00  17 2.02  25 2.02  26 2.02  18 2.02   2 3.20  50 3.20

   2  0.375  0.500  0.188-  22 2.00  30 2.00  26 2.02  18 2.02  64 2.02  72 2.02   1 3.20  49 3.20

   3  0.125  0.000  0.062-  23 2.00  31 2.00  19 2.02  27 2.02  28 2.02  20 2.02   4 3.20  52 3.20

   4  0.375  0.000  0.062-  24 2.00  32 2.00  28 2.02  20 2.02  66 2.02  74 2.02   3 3.20  51 3.20

   5  0.000  0.500  0.062-  17 2.00  23 2.02  31 2.02  71 2.02  79 2.02   6 3.20  54 3.20
   6  0.250  0.500  0.062-  18 2.00  23 2.02  24 2.02  31 2.02  32 2.02   5 3.20  53 3.20
   7  0.000  0.000  0.188-  35 1.99  27 2.00  29 2.02  21 2.02  69 2.02  77 2.02   8 3.20  56 3.20

   8  0.250  0.000  0.188-  36 1.98  28 2.00  21 2.02  29 2.02  30 2.02  22 2.02   7 3.20  55 3.20

   9  0.122  0.500  0.442-  41 1.78  33 1.93  42 1.96  37 2.03  45 2.03  34 2.13  10 3.25
  10  0.376  0.500  0.436-  42 1.96  88 1.96  38 2.01  46 2.01  80 2.03  34 2.03  57 3.24   9 3.25

  11  0.125  0.000  0.312-  39 1.99  47 1.99  35 2.02  44 2.02  36 2.02  43 2.03  12 3.21  59 3.22

  12  0.375  0.000  0.312-  40 2.00  48 2.00  90 2.02  44 2.02  82 2.02  36 2.03  11 3.21  58 3.22

  13  0.002  0.500  0.314-  33 1.92  39 2.02  47 2.02  25 2.03  87 2.05  95 2.05  14 3.18  61 3.25

  14  0.251  0.500  0.312-  34 1.98  26 1.99  39 2.02  47 2.02  40 2.02  48 2.02  13 3.18  60 3.20

  15  0.995  0.000  0.434-  43 1.94  85 1.96  93 1.96  37 2.06  45 2.06  63 3.06  16 3.27
  16  0.250  0.000  0.435-  44 1.95  37 2.02  45 2.02  46 2.03  38 2.03  62 3.23  15 3.27
  17  0.000  0.500  0.140-   5 2.00   1 2.02  50 2.02
  18  0.250  0.500  0.140-   6 2.00   2 2.02   1 2.02
  19  0.000  0.000  0.015-   3 2.02  52 2.02
  20  0.250  0.000  0.015-   3 2.02   4 2.02
  21  0.125  0.808  0.188-   1 2.00   7 2.02   8 2.02
  22  0.375  0.808  0.188-   2 2.00   8 2.02  55 2.02
  23  0.125  0.308  0.062-   3 2.00   5 2.02   6 2.02
  24  0.375  0.308  0.062-   4 2.00   6 2.02  53 2.02
  25  0.000  0.500  0.235-   1 2.02  50 2.02  13 2.03
  26  0.250  0.500  0.235-  14 1.99   2 2.02   1 2.02
  27  0.000  0.000  0.110-   7 2.00   3 2.02  52 2.02
  28  0.250  0.000  0.110-   8 2.00   4 2.02   3 2.02
  29  0.125  0.192  0.188-   1 2.00   7 2.02   8 2.02
  30  0.375  0.192  0.188-   2 2.00   8 2.02  55 2.02
  31  0.125  0.692  0.062-   3 2.00   5 2.02   6 2.02
  32  0.375  0.692  0.062-   4 2.00   6 2.02  53 2.02
  33  0.019  0.500  0.388-  13 1.92   9 1.93
  34  0.249  0.500  0.389-  14 1.98  10 2.03   9 2.13
  35  0.999  0.000  0.264-   7 1.99  11 2.02  59 2.05
  36  0.250  0.000  0.264-   8 1.98  11 2.02  12 2.03
  37  0.124  0.813  0.441-  16 2.02   9 2.03  15 2.06
  38  0.376  0.810  0.439-  10 2.01  16 2.03  62 2.04
  39  0.126  0.308  0.310-  11 1.99  13 2.02  14 2.02
  40  0.375  0.308  0.313-  12 2.00  60 2.02  14 2.02
  41  0.041  0.500  0.498-   9 1.78
  42  0.253  0.500  0.481-  10 1.96   9 1.96
  43  0.999  0.000  0.359-  15 1.94  59 2.01  11 2.03
  44  0.250  0.000  0.359-  16 1.95  12 2.02  11 2.02
  45  0.124  0.187  0.441-  16 2.02   9 2.03  15 2.06
  46  0.376  0.190  0.439-  10 2.01  16 2.03  62 2.04
  47  0.126  0.692  0.310-  11 1.99  13 2.02  14 2.02
  48  0.375  0.692  0.313-  12 2.00  60 2.02  14 2.02
  49  0.625  0.500  0.188-  68 2.00  76 2.00  64 2.02  72 2.02  73 2.02  65 2.02   2 3.20  50 3.20

  50  0.875  0.500  0.188-  69 2.00  77 2.00  65 2.02  17 2.02  73 2.02  25 2.02   1 3.20  49 3.20

  51  0.625  0.000  0.062-  70 2.00  78 2.00  66 2.02  74 2.02  75 2.02  67 2.02   4 3.20  52 3.20

  52  0.875  0.000  0.062-  71 2.00  79 2.00  67 2.02  19 2.02  75 2.02  27 2.02   3 3.20  51 3.20

  53  0.500  0.500  0.062-  64 2.00  32 2.02  24 2.02  70 2.02  78 2.02  54 3.20   6 3.20
  54  0.750  0.500  0.062-  65 2.00  70 2.02  71 2.02  78 2.02  79 2.02  53 3.20   5 3.20
  55  0.500  0.000  0.188-  82 1.99  74 2.00  68 2.02  22 2.02  76 2.02  30 2.02   8 3.20  56 3.20

  56  0.750  0.000  0.188-  75 2.00  83 2.00  68 2.02  76 2.02  77 2.02  69 2.02   7 3.20  55 3.20

  57  0.628  0.500  0.441-  89 1.79  81 1.93  88 1.97  84 2.02  92 2.02  80 2.12  10 3.24
  58  0.627  0.000  0.313-  86 1.99  94 1.99  83 2.01  90 2.02  91 2.02  82 2.04  59 3.15  12 3.22

  59  0.873  0.000  0.313-  87 2.00  95 2.00  83 2.01  43 2.01  91 2.02  35 2.05  58 3.15  11 3.22

  60  0.500  0.500  0.312-  80 1.98  72 1.99  40 2.02  48 2.02  86 2.02  94 2.02  61 3.18  14 3.20

  61  0.748  0.500  0.314-  81 1.92  86 2.02  94 2.02  87 2.04  95 2.04  73 2.04  60 3.18  13 3.25

  62  0.502  0.000  0.434-  90 1.94  84 2.01  92 2.01  46 2.04  38 2.04  16 3.23  63 3.28
  63  0.757  0.000  0.446-  96 1.77  93 1.94  85 1.94  84 2.08  92 2.08  91 2.19  15 3.06  62 3.28

  64  0.500  0.500  0.140-  53 2.00  49 2.02   2 2.02
  65  0.750  0.500  0.140-  54 2.00  50 2.02  49 2.02
  66  0.500  0.000  0.015-   4 2.02  51 2.02
  67  0.750  0.000  0.015-  51 2.02  52 2.02
  68  0.625  0.808  0.188-  49 2.00  55 2.02  56 2.02
  69  0.875  0.808  0.188-  50 2.00   7 2.02  56 2.02
  70  0.625  0.308  0.062-  51 2.00  53 2.02  54 2.02
  71  0.875  0.308  0.062-  52 2.00   5 2.02  54 2.02
  72  0.500  0.500  0.235-  60 1.99  49 2.02   2 2.02
  73  0.750  0.500  0.235-  49 2.02  50 2.02  61 2.04
  74  0.500  0.000  0.110-  55 2.00  51 2.02   4 2.02
  75  0.750  0.000  0.110-  56 2.00  52 2.02  51 2.02
  76  0.625  0.192  0.188-  49 2.00  55 2.02  56 2.02
  77  0.875  0.192  0.188-  50 2.00   7 2.02  56 2.02
  78  0.625  0.692  0.062-  51 2.00  53 2.02  54 2.02
  79  0.875  0.692  0.062-  52 2.00   5 2.02  54 2.02
  80  0.502  0.500  0.389-  60 1.98  10 2.03  57 2.12
  81  0.733  0.500  0.388-  61 1.92  57 1.93
  82  0.501  0.000  0.265-  55 1.99  12 2.02  58 2.04
  83  0.750  0.000  0.265-  56 2.00  58 2.01  59 2.01
  84  0.626  0.812  0.441-  62 2.01  57 2.02  63 2.08
  85  0.875  0.815  0.438-  63 1.94  15 1.96
  86  0.625  0.308  0.311-  58 1.99  61 2.02  60 2.02
  87  0.875  0.309  0.314-  59 2.00  61 2.04  13 2.05
  88  0.498  0.500  0.482-  10 1.96  57 1.97
  89  0.710  0.500  0.497-  57 1.79
  90  0.500  0.000  0.359-  62 1.94  12 2.02  58 2.02
  91  0.750  0.000  0.362-  59 2.02  58 2.02  63 2.19
  92  0.626  0.188  0.441-  62 2.01  57 2.02  63 2.08
  93  0.875  0.185  0.438-  63 1.94  15 1.96
  94  0.625  0.692  0.311-  58 1.99  61 2.02  60 2.02
  95  0.875  0.691  0.314-  59 2.00  61 2.04  13 2.05
  96  0.750  0.000  0.515-  63 1.77
 
  LATTYP: Found a simple orthorhombic cell.
 ALAT       =     6.4702430000
 B/A-ratio  =     1.9796060210
 C/A-ratio  =     4.0000000000
  
  Lattice vectors:
  
 A1 = (   0.0000000000,  -6.4702430000,   0.0000000000)
 A2 = ( -12.8085320000,   0.0000000000,   0.0000000000)
 A3 = (   0.0000000000,   0.0000000000, -25.8809720000)


Analysis of symmetry for initial positions (statically):
=====================================================================
 Subroutine PRICEL returns:
 Original cell was already a primitive cell.
 

 Routine SETGRP: Setting up the symmetry group for a 
 simple orthorhombic supercell.


 Subroutine GETGRP returns: Found  2 space group operations
 (whereof  2 operations were pure point group operations)
 out of a pool of  8 trial point group operations.


The static configuration has the point symmetry C_1h.


Analysis of symmetry for dynamics (positions and initial velocities):
=====================================================================
 Subroutine PRICEL returns:
 Original cell was already a primitive cell.
 

 Routine SETGRP: Setting up the symmetry group for a 
 simple orthorhombic supercell.


 Subroutine GETGRP returns: Found  2 space group operations
 (whereof  2 operations were pure point group operations)
 out of a pool of  8 trial point group operations.


The dynamic configuration has the point symmetry C_1h.


Analysis of constrained symmetry for selective dynamics:
=====================================================================
 Subroutine PRICEL returns:
 Original cell was already a primitive cell.
 

 Routine SETGRP: Setting up the symmetry group for a 
 simple orthorhombic supercell.


 Subroutine GETGRP returns: Found  2 space group operations
 (whereof  2 operations were pure point group operations)
 out of a pool of  8 trial point group operations.


The constrained configuration has the point symmetry C_1h.


Analysis of structural, dynamic, and magnetic symmetry:
=====================================================================
 Subroutine PRICEL returns:
 Original cell was already a primitive cell.
 

 Routine SETGRP: Setting up the symmetry group for a 
 simple orthorhombic supercell.


 Subroutine GETGRP returns: Found  2 space group operations
 (whereof  2 operations were pure point group operations)
 out of a pool of  8 trial point group operations.


The magnetic configuration has the point symmetry C_1h.


 Subroutine INISYM returns: Found  2 space group operations
 (whereof  2 operations are pure point group operations),
 and found     1 'primitive' translations

 
 
 KPOINTS: Automatic mesh                          

Automatic generation of k-mesh.
Space group operators:
 irot       det(A)        alpha          n_x          n_y          n_z        tau_x        tau_y        tau_z
    1     1.000000     0.000001     1.000000     0.000000     0.000000     0.000000     0.000000     0.000000
    2    -1.000000   180.000000     0.000000     1.000000     0.000000     0.000000     0.000000     0.000000
 
 Subroutine IBZKPT returns following result:
 ===========================================
 
 Found      4 irreducible k-points:
 
 Following reciprocal coordinates:
            Coordinates               Weight
  0.000000  0.000000  0.000000      1.000000
  0.333333  0.000000  0.000000      2.000000
  0.000000  0.333333  0.000000      2.000000
  0.333333  0.333333  0.000000      4.000000
 
 Following cartesian coordinates:
            Coordinates               Weight
  0.000000  0.000000  0.000000      1.000000
  0.026024  0.000000  0.000000      2.000000
  0.000000  0.051518  0.000000      2.000000
  0.026024  0.051518  0.000000      4.000000
 
 
 Subroutine IBZKPT_HF returns following result:
 ==============================================
 
 Found      9 k-points in 1st BZ
 the following      9 k-points will be used (e.g. in the exchange kernel)
 Following reciprocal coordinates:   # in IRBZ
  0.000000  0.000000  0.000000    0.11111111   1 t-inv F
  0.333333  0.000000  0.000000    0.11111111   2 t-inv F
  0.000000  0.333333  0.000000    0.11111111   3 t-inv F
  0.333333  0.333333  0.000000    0.11111111   4 t-inv F
  0.000000 -0.333333  0.000000    0.11111111   3 t-inv F
  0.333333 -0.333333  0.000000    0.11111111   4 t-inv F
 -0.333333  0.000000  0.000000    0.11111111   2 t-inv T
 -0.333333 -0.333333  0.000000    0.11111111   4 t-inv T
 -0.333333  0.333333  0.000000    0.11111111   4 t-inv T


--------------------------------------------------------------------------------------------------------




 Dimension of arrays:
   k-points           NKPTS =      4   k-points in BZ     NKDIM =      4   number of bands    NBANDS=    440
   number of dos      NEDOS =    301   number of ions     NIONS =     96
   non local maximal  LDIM  =      6   non local SUM 2l+1 LMDIM =     18
   total plane-waves  NPLWV = 362880
   max r-space proj   IRMAX =   2532   max aug-charges    IRDMAX=  12432
   dimension x,y,z NGX =    70 NGY =   36 NGZ =  144
   dimension x,y,z NGXF=   140 NGYF=   72 NGZF=  288
   support grid    NGXF=   140 NGYF=   72 NGZF=  288
   ions per type =              16  32  15  33
   NGX,Y,Z   is equivalent  to a cutoff of   9.09,  9.25,  9.25 a.u.
   NGXF,Y,Z  is equivalent  to a cutoff of  18.17, 18.50, 18.50 a.u.

 SYSTEM =  unknown system                          
 POSCAR =  Ir  O Ir  O                             

 Startparameter for this run:
   NWRITE =      2    write-flag & timer
   PREC   = normal    normal or accurate (medium, high low for compatibility)
   ISTART =      0    job   : 0-new  1-cont  2-samecut
   ICHARG =      2    charge: 1-file 2-atom 10-const
   ISPIN  =      2    spin polarized calculation?
   LNONCOLLINEAR =      F non collinear calculations
   LSORBIT =      F    spin-orbit coupling
   INIWAV =      1    electr: 0-lowe 1-rand  2-diag
   LASPH  =      F    aspherical Exc in radial PAW
   METAGGA=      F    non-selfconsistent MetaGGA calc.

 Electronic Relaxation 1
   ENCUT  =  500.0 eV  36.75 Ry    6.06 a.u.  23.35 11.80 47.19*2*pi/ulx,y,z
   ENINI  =  500.0     initial cutoff
   ENAUG  =  605.4 eV  augmentation charge cutoff
   NELM   =     60;   NELMIN=  4; NELMDL= -5     # of ELM steps 
   EDIFF  = 0.1E-05   stopping-criterion for ELM
   LREAL  =      T    real-space projection
   NLSPLINE    = F    spline interpolate recip. space projectors
   LCOMPAT=      F    compatible to vasp.4.4
   GGA_COMPAT  = T    GGA compatible to vasp.4.4-vasp.4.6
   LMAXPAW     = -100 max onsite density
   LMAXMIX     =    2 max onsite mixed and CHGCAR
   VOSKOWN=      0    Vosko Wilk Nusair interpolation
   ROPT   =   -0.00050  -0.00050  -0.00050  -0.00050
 Ionic relaxation
   EDIFFG = -.5E-01   stopping-criterion for IOM
   NSW    =   1189    number of steps for IOM
   NBLOCK =      1;   KBLOCK =   1189    inner block; outer block 
   IBRION =      5    ionic relax: 0-MD 1-quasi-New 2-CG
   NFREE  =      2    steps in history (QN), initial steepest desc. (CG)
   ISIF   =      2    stress and relaxation
   IWAVPR =     11    prediction:  0-non 1-charg 2-wave 3-comb
   ISYM   =      2    0-nonsym 1-usesym 2-fastsym
   LCORR  =      T    Harris-Foulkes like correction to forces

   POTIM  = 0.5000    time-step for ionic-motion
   TEIN   =    0.0    initial temperature
   TEBEG  =    0.0;   TEEND  =   0.0 temperature during run
   SMASS  =  -3.00    Nose mass-parameter (am)
   estimated Nose-frequenzy (Omega)   =  0.10E-29 period in steps =****** mass=  -0.375E-26a.u.
   SCALEE = 1.0000    scale energy and forces
   NPACO  =    256;   APACO  = 16.0  distance and # of slots for P.C.
   PSTRESS=    0.0 pullay stress

  Mass of Ions in am
   POMASS = 192.22 16.00192.22 16.00
  Ionic Valenz
   ZVAL   =   9.00  6.00  9.00  6.00
  Atomic Wigner-Seitz radii
   RWIGS  =  -1.00 -1.00 -1.00 -1.00
  virtual crystal weights 
   VCA    =   1.00  1.00  1.00  1.00
   NELECT =     669.0000    total number of electrons
   NUPDOWN=      -1.0000    fix difference up-down

 DOS related values:
   EMIN   =  10.00;   EMAX   =-10.00  energy-range for DOS
   EFERMI =   0.00
   ISMEAR =     0;   SIGMA  =   0.05  broadening in eV -4-tet -1-fermi 0-gaus

 Electronic relaxation 2 (details)
   IALGO  =     68    algorithm
   LDIAG  =      T    sub-space diagonalisation (order eigenvalues)
   LSUBROT=      F    optimize rotation matrix (better conditioning)
   TURBO    =      0    0=normal 1=particle mesh
   IRESTART =      0    0=no restart 2=restart with 2 vectors
   NREBOOT  =      0    no. of reboots
   NMIN     =      0    reboot dimension
   EREF     =   0.00    reference energy to select bands
   IMIX   =      4    mixing-type and parameters
     AMIX     =   0.40;   BMIX     =  1.00
     AMIX_MAG =   1.60;   BMIX_MAG =  1.00
     AMIN     =   0.10
     WC   =   100.;   INIMIX=   1;  MIXPRE=   1;  MAXMIX=  60

 Intra band minimization:
   WEIMIN = 0.0010     energy-eigenvalue tresh-hold
   EBREAK =  0.57E-09  absolut break condition
   DEPER  =   0.30     relativ break condition  

   TIME   =   0.40     timestep for ELM

  volume/ion in A,a.u.               =      22.34       150.77
  Fermi-wavevector in a.u.,A,eV,Ry     =   1.110240  2.098049 16.770974  1.232632
  Thomas-Fermi vector in A             =   2.246789
 
 Write flags
   LWAVE        =      F    write WAVECAR
   LDOWNSAMPLE  =      F    k-point downsampling of WAVECAR
   LCHARG       =      F    write CHGCAR
   LVTOT        =      F    write LOCPOT, total local potential
   LVHAR        =      T    write LOCPOT, Hartree potential only
   LELF         =      F    write electronic localiz. function (ELF)
   LORBIT       =      0    0 simple, 1 ext, 2 COOP (PROOUT), +10 PAW based schemes


 Dipole corrections
   LMONO  =      F    monopole corrections only (constant potential shift)
   LDIPOL =      F    correct potential (dipole corrections)
   IDIPOL =      0    1-x, 2-y, 3-z, 4-all directions 
   EPSILON=  1.0000000 bulk dielectric constant

 Exchange correlation treatment:
   GGA     =    RP    GGA type
   LEXCH   =     9    internal setting for exchange type
   VOSKOWN=      0    Vosko Wilk Nusair interpolation
   LHFCALC =     F    Hartree Fock is set to
   LHFONE  =     F    Hartree Fock one center treatment
   AEXX    =    0.0000 exact exchange contribution

 Linear response parameters
   LEPSILON=     F    determine dielectric tensor
   LRPA    =     F    only Hartree local field effects (RPA)
   LNABLA  =     F    use nabla operator in PAW spheres
   LVEL    =     F    velocity operator in full k-point grid
   LINTERFAST=   F  fast interpolation
   KINTER  =     0    interpolate to denser k-point grid
   CSHIFT  =0.1000    complex shift for real part using Kramers Kronig
   OMEGAMAX=  -1.0    maximum frequency
   DEG_THRESHOLD= 0.2000000E-02 threshold for treating states as degnerate
   RTIME   =   -0.100 relaxation time in fs
  (WPLASMAI=    0.000 imaginary part of plasma frequency in eV, 0.658/RTIME)
   DFIELD  = 0.0000000 0.0000000 0.0000000 field for delta impulse in time
 
 Orbital magnetization related:
   ORBITALMAG=     F  switch on orbital magnetization
   LCHIMAG   =     F  perturbation theory with respect to B field
   DQ        =  0.001000  dq finite difference perturbation B field
   LLRAUG    =     F  two centre corrections for induced B field



--------------------------------------------------------------------------------------------------------


 finite differences
   using selective dynamics as specified on POSCAR
   WARNING: If single coordinates had been selected the selection of coordinates
            is made according to the corresponding   d i r e c t   coordinates!
            Don't support selection of single cartesian coordinates -- sorry ...
  !
 charge density and potential will be updated during run
 spin polarized calculation
 RMM-DIIS sequential band-by-band and
  variant of blocked Davidson during initial phase
 perform sub-space diagonalisation
    before iterative eigenvector-optimisation
 modified Broyden-mixing scheme, WC =      100.0
 initial mixing is a Kerker type mixing with AMIX =  0.4000 and BMIX =      1.0000
 Hartree-type preconditioning will be used
 using additional bands          105
 real space projection scheme for non local part
 use partial core corrections
 calculate Harris-corrections to forces 
   (improved forces if not selfconsistent)
 use gradient corrections 
 use of overlap-Matrix (Vanderbilt PP)
 Gauss-broadening in eV      SIGMA  =   0.05


--------------------------------------------------------------------------------------------------------


  energy-cutoff  :      500.00
  volume of cell :     2144.87
      direct lattice vectors                 reciprocal lattice vectors
    12.808532000  0.000000000  0.000000000     0.078072959  0.000000000  0.000000000
     0.000000000  6.470243000  0.000000000     0.000000000  0.154553701  0.000000000
     0.000000000  0.000000000 25.880972000     0.000000000  0.000000000  0.038638425

  length of vectors
    12.808532000  6.470243000 25.880972000     0.078072959  0.154553701  0.038638425


 
 k-points in units of 2pi/SCALE and weight: Automatic mesh                          
   0.00000000  0.00000000  0.00000000       0.111
   0.02602432  0.00000000  0.00000000       0.222
   0.00000000  0.05151790  0.00000000       0.222
   0.02602432  0.05151790  0.00000000       0.444
 
 k-points in reciprocal lattice and weights: Automatic mesh                          
   0.00000000  0.00000000  0.00000000       0.111
   0.33333333  0.00000000  0.00000000       0.222
   0.00000000  0.33333333  0.00000000       0.222
   0.33333333  0.33333333  0.00000000       0.444
 
 position of ions in fractional coordinates (direct lattice) 
   0.12500000  0.50000000  0.18750000
   0.37500000  0.50000000  0.18750000
   0.12500000  0.00000000  0.06250000
   0.37500000  0.00000000  0.06250000
   0.00000000  0.50000000  0.06250000
   0.25000000  0.50000000  0.06250000
   0.00000000  0.00000000  0.18750000
   0.25000000  0.00000000  0.18750000
   0.12223911  0.50000000  0.44192341
   0.37565173  0.50000000  0.43593695
   0.12457932  0.00000000  0.31159927
   0.37534832  0.00000000  0.31203257
   0.00211083  0.50000000  0.31399451
   0.25050598  0.50000000  0.31222183
   0.99512424  0.00000000  0.43438759
   0.25008102  0.00000000  0.43462383
   0.00000000  0.50000000  0.13961000
   0.25000000  0.50000000  0.13961000
   0.00000000  0.00000000  0.01461000
   0.25000000  0.00000000  0.01461000
   0.12500000  0.80844000  0.18750000
   0.37500000  0.80844000  0.18750000
   0.12500000  0.30844000  0.06250000
   0.37500000  0.30844000  0.06250000
   0.00000000  0.50000000  0.23539000
   0.25000000  0.50000000  0.23539000
   0.00000000  0.00000000  0.11039000
   0.25000000  0.00000000  0.11039000
   0.12500000  0.19156000  0.18750000
   0.37500000  0.19156000  0.18750000
   0.12500000  0.69156000  0.06250000
   0.37500000  0.69156000  0.06250000
   0.01875385  0.50000000  0.38787139
   0.24899985  0.50000000  0.38857638
   0.99901271  0.00000000  0.26439386
   0.25023067  0.00000000  0.26417274
   0.12446926  0.81321782  0.44137557
   0.37578457  0.80970836  0.43858656
   0.12604139  0.30814038  0.31018085
   0.37536372  0.30839207  0.31254188
   0.04106860  0.50000000  0.49797027
   0.25317959  0.50000000  0.48147178
   0.99927784  0.00000000  0.35944257
   0.24971325  0.00000000  0.35928788
   0.12446926  0.18678218  0.44137557
   0.37578457  0.19029164  0.43858656
   0.12604139  0.69185962  0.31018085
   0.37536372  0.69160793  0.31254188
   0.62500000  0.50000000  0.18750000
   0.87500000  0.50000000  0.18750000
   0.62500000  0.00000000  0.06250000
   0.87500000  0.00000000  0.06250000
   0.50000000  0.50000000  0.06250000
   0.75000000  0.50000000  0.06250000
   0.50000000  0.00000000  0.18750000
   0.75000000  0.00000000  0.18750000
   0.62845147  0.50000000  0.44125706
   0.62685639  0.00000000  0.31280346
   0.87315548  0.00000000  0.31303740
   0.50001633  0.50000000  0.31215734
   0.74841449  0.50000000  0.31414261
   0.50215744  0.00000000  0.43437086
   0.75718102  0.00000000  0.44640360
   0.50000000  0.50000000  0.13961000
   0.75000000  0.50000000  0.13961000
   0.50000000  0.00000000  0.01461000
   0.75000000  0.00000000  0.01461000
   0.62500000  0.80844000  0.18750000
   0.87500000  0.80844000  0.18750000
   0.62500000  0.30844000  0.06250000
   0.87500000  0.30844000  0.06250000
   0.50000000  0.50000000  0.23539000
   0.75000000  0.50000000  0.23539000
   0.50000000  0.00000000  0.11039000
   0.75000000  0.00000000  0.11039000
   0.62500000  0.19156000  0.18750000
   0.87500000  0.19156000  0.18750000
   0.62500000  0.69156000  0.06250000
   0.87500000  0.69156000  0.06250000
   0.50176274  0.50000000  0.38857225
   0.73322494  0.50000000  0.38776839
   0.50066597  0.00000000  0.26450730
   0.75015418  0.00000000  0.26463906
   0.62618501  0.81163299  0.44055969
   0.87479380  0.81476981  0.43840388
   0.62450101  0.30773593  0.31064314
   0.87480578  0.30909666  0.31407840
   0.49807271  0.50000000  0.48156024
   0.70979847  0.50000000  0.49743554
   0.50033629  0.00000000  0.35941519
   0.74983479  0.00000000  0.36193066
   0.62618501  0.18836701  0.44055969
   0.87479380  0.18523019  0.43840388
   0.62450101  0.69226407  0.31064314
   0.87480578  0.69090334  0.31407840
   0.74981647  0.00000000  0.51484751
 
 position of ions in cartesian coordinates  (Angst):
   1.60106650  3.23512150  4.85268225
   4.80319950  3.23512150  4.85268225
   1.60106650  0.00000000  1.61756075
   4.80319950  0.00000000  1.61756075
   0.00000000  3.23512150  1.61756075
   3.20213300  3.23512150  1.61756075
   0.00000000  0.00000000  4.85268225
   3.20213300  0.00000000  4.85268225
   1.56570354  3.23512150 11.43740734
   4.81154718  3.23512150 11.28247201
   1.59567818  0.00000000  8.06449204
   4.80766098  0.00000000  8.07570617
   0.02703657  3.23512150  8.12648317
   3.20861391  3.23512150  8.08060448
  12.74608061  0.00000000 11.24237300
   3.20317081  0.00000000 11.24848723
   0.00000000  3.23512150  3.61324250
   3.20213300  3.23512150  3.61324250
   0.00000000  0.00000000  0.37812100
   3.20213300  0.00000000  0.37812100
   1.60106650  5.23080325  4.85268225
   4.80319950  5.23080325  4.85268225
   1.60106650  1.99568175  1.61756075
   4.80319950  1.99568175  1.61756075
   0.00000000  3.23512150  6.09212200
   3.20213300  3.23512150  6.09212200
   0.00000000  0.00000000  2.85700050
   3.20213300  0.00000000  2.85700050
   1.60106650  1.23943975  4.85268225
   4.80319950  1.23943975  4.85268225
   1.60106650  4.47456125  1.61756075
   4.80319950  4.47456125  1.61756075
   0.24020933  3.23512150 10.03848862
   3.18932259  3.23512150 10.05673443
  12.79588623  0.00000000  6.84276999
   3.20508759  0.00000000  6.83704719
   1.59426852  5.26171690 11.42322869
   4.81324871  5.23900983 11.35104637
   1.61440517  1.99374316  8.02778190
   4.80785821  1.99537160  8.08888767
   0.52602843  3.23512150 12.88795467
   3.24285883  3.23512150 12.46095765
  12.79928214  0.00000000  9.30272297
   3.19846018  0.00000000  9.29871953
   1.59426852  1.20852610 11.42322869
   4.81324871  1.23123317 11.35104637
   1.61440517  4.47649984  8.02778190
   4.80785821  4.47487140  8.08888767
   8.00533250  3.23512150  4.85268225
  11.20746550  3.23512150  4.85268225
   8.00533250  0.00000000  1.61756075
  11.20746550  0.00000000  1.61756075
   6.40426600  3.23512150  1.61756075
   9.60639900  3.23512150  1.61756075
   6.40426600  0.00000000  4.85268225
   9.60639900  0.00000000  4.85268225
   8.04954072  3.23512150 11.42016168
   8.02911017  0.00000000  8.09565748
  11.18383985  0.00000000  8.10171227
   6.40447518  3.23512150  8.07893550
   9.58609100  3.23512150  8.13031609
   6.43189961  0.00000000 11.24193994
   9.69837731  0.00000000 11.55335911
   6.40426600  3.23512150  3.61324250
   9.60639900  3.23512150  3.61324250
   6.40426600  0.00000000  0.37812100
   9.60639900  0.00000000  0.37812100
   8.00533250  5.23080325  4.85268225
  11.20746550  5.23080325  4.85268225
   8.00533250  1.99568175  1.61756075
  11.20746550  1.99568175  1.61756075
   6.40426600  3.23512150  6.09212200
   9.60639900  3.23512150  6.09212200
   6.40426600  0.00000000  2.85700050
   9.60639900  0.00000000  2.85700050
   8.00533250  1.23943975  4.85268225
  11.20746550  1.23943975  4.85268225
   8.00533250  4.47456125  1.61756075
  11.20746550  4.47456125  1.61756075
   6.42684413  3.23512150 10.05662759
   9.39153510  3.23512150 10.03582283
   6.41279604  0.00000000  6.84570597
   9.60837380  0.00000000  6.84911605
   8.02051073  5.25146265 11.40211302
  11.20482440  5.27175869 11.34631844
   7.99894116  1.99112625  8.03974640
  11.20497782  1.99993051  8.12865415
   6.37958020  3.23512150 12.46324708
   9.09147643  3.23512150 12.87411523
   6.40857333  0.00000000  9.30201436
   9.60428297  0.00000000  9.36711740
   8.02051073  1.21878035 11.40211302
  11.20482440  1.19848431 11.34631844
   7.99894116  4.47911675  8.03974640
  11.20497782  4.47031249  8.12865415
   9.60404825  0.00000000 13.32475390
 


--------------------------------------------------------------------------------------------------------


 k-point  1 :   0.0000 0.0000 0.0000  plane waves:   54455
 k-point  2 :   0.3333 0.0000 0.0000  plane waves:   54459
 k-point  3 :   0.0000 0.3333 0.0000  plane waves:   54468
 k-point  4 :   0.3333 0.3333 0.0000  plane waves:   54434

 maximum and minimum number of plane-waves per node :     54468    54434

 maximum number of plane-waves:     54468
 maximum index in each direction: 
   IXMAX=   23   IYMAX=   11   IZMAX=   47
   IXMIN=  -23   IYMIN=  -12   IZMIN=  -47


 serial   3D FFT for wavefunctions
 parallel 3D FFT for charge:
    minimum data exchange during FFTs selected (reduces bandwidth)


 total amount of memory used by VASP MPI-rank0   171690. kBytes
=======================================================================

   base      :      30000. kBytes
   nonlr-proj:      19162. kBytes
   fftplans  :       4196. kBytes
   grid      :      37119. kBytes
   one-center:       2985. kBytes
   wavefun   :      78228. kBytes
 
     INWAV:  cpu time    0.0000: real time    0.0002
 Broyden mixing: mesh for mixing (old mesh)
   NGX = 47   NGY = 23   NGZ = 95
  (NGX  =140   NGY  = 72   NGZ  =288)
  gives a total of 102695 points

 initial charge density was supplied:
 charge density of overlapping atoms calculated
 number of electron     669.0000000 magnetization      57.6000000
 keeping initial charge density in first step


--------------------------------------------------------------------------------------------------------


 Maximum index for non-local projection operator         2433
 Maximum index for augmentation-charges          641 (set IRDMAX)


--------------------------------------------------------------------------------------------------------


 First call to EWALD:  gamma=   0.137
 Maximum number of real-space cells 3x 5x 2
 Maximum number of reciprocal cells 3x 2x 5

    FEWALD:  cpu time    0.0037: real time    0.0037


--------------------------------------- Iteration      1(   1)  ---------------------------------------


    POTLOK:  cpu time    0.1188: real time    0.1237
    SETDIJ:  cpu time    0.0165: real time    0.0183
     EDDAV:  cpu time   13.1726: real time   13.2384
       DOS:  cpu time    0.0014: real time    0.0023
    --------------------------------------------
      LOOP:  cpu time   13.3093: real time   13.3827

 eigenvalue-minimisations  :  7040
 total energy-change (2. order) : 0.7242446E+04  (-0.3003542E+05)
 number of electron     669.0000000 magnetization      57.6000000
 augmentation part      669.0000000 magnetization      57.6000000

 Free energy of the ion-electron system (eV)
  ---------------------------------------------------
  alpha Z        PSCENC =      1694.52919351
  Ewald energy   TEWEN  =    226492.63596885
  -Hartree energ DENC   =   -271372.19462000
  -exchange      EXHF   =         0.00000000
  -V(xc)+E(xc)   XCENC  =      1245.36170902
  PAW double counting   =     39656.53614886   -38476.97807352
  entropy T*S    EENTRO =        -0.05399279
  eigenvalues    EBANDS =      2560.87565620
  atomic energy  EATOM  =     45441.73369906
  Solvation  Ediel_sol  =         0.00000000
  ---------------------------------------------------
  free energy    TOTEN  =      7242.44568919 eV

  energy without entropy =     7242.49968198  energy(sigma->0) =     7242.47268558


--------------------------------------------------------------------------------------------------------




--------------------------------------- Iteration      1(   2)  ---------------------------------------


     EDDAV:  cpu time   13.6507: real time   13.6867
       DOS:  cpu time    0.0008: real time    0.0007
    --------------------------------------------
      LOOP:  cpu time   13.6514: real time   13.6874

 eigenvalue-minimisations  :  7360
 total energy-change (2. order) :-0.6809976E+04  (-0.6257591E+04)
 number of electron     669.0000000 magnetization      57.6000000
 augmentation part      669.0000000 magnetization      57.6000000

 Free energy of the ion-electron system (eV)
  ---------------------------------------------------
  alpha Z        PSCENC =      1694.52919351
  Ewald energy   TEWEN  =    226492.63596885
  -Hartree energ DENC   =   -271372.19462000
  -exchange      EXHF   =         0.00000000
  -V(xc)+E(xc)   XCENC  =      1245.36170902
  PAW double counting   =     39656.53614886   -38476.97807352
  entropy T*S    EENTRO =        -0.05931394
  eigenvalues    EBANDS =     -4249.09476904
  atomic energy  EATOM  =     45441.73369906
  Solvation  Ediel_sol  =         0.00000000
  ---------------------------------------------------
  free energy    TOTEN  =       432.46994280 eV

  energy without entropy =      432.52925674  energy(sigma->0) =      432.49959977


--------------------------------------------------------------------------------------------------------




--------------------------------------- Iteration      1(   3)  ---------------------------------------


     EDDAV:  cpu time   17.1074: real time   17.1631
       DOS:  cpu time    0.0007: real time    0.0007
    --------------------------------------------
      LOOP:  cpu time   17.1081: real time   17.1638

 eigenvalue-minimisations  :  9640
 total energy-change (2. order) :-0.1129287E+04  (-0.1087712E+04)
 number of electron     669.0000000 magnetization      57.6000000
 augmentation part      669.0000000 magnetization      57.6000000

 Free energy of the ion-electron system (eV)
  ---------------------------------------------------
  alpha Z        PSCENC =      1694.52919351
  Ewald energy   TEWEN  =    226492.63596885
  -Hartree energ DENC   =   -271372.19462000
  -exchange      EXHF   =         0.00000000
  -V(xc)+E(xc)   XCENC  =      1245.36170902
  PAW double counting   =     39656.53614886   -38476.97807352
  entropy T*S    EENTRO =        -0.08348023
  eigenvalues    EBANDS =     -5378.35773640
  atomic energy  EATOM  =     45441.73369906
  Solvation  Ediel_sol  =         0.00000000
  ---------------------------------------------------
  free energy    TOTEN  =      -696.81719085 eV

  energy without entropy =     -696.73371062  energy(sigma->0) =     -696.77545073


--------------------------------------------------------------------------------------------------------




--------------------------------------- Iteration      1(   4)  ---------------------------------------


     EDDAV:  cpu time   15.4168: real time   15.4597
       DOS:  cpu time    0.0007: real time    0.0007
    --------------------------------------------
      LOOP:  cpu time   15.4176: real time   15.4604

 eigenvalue-minimisations  :  8520
 total energy-change (2. order) :-0.4650458E+02  (-0.4565041E+02)
 number of electron     669.0000000 magnetization      57.6000000
 augmentation part      669.0000000 magnetization      57.6000000

 Free energy of the ion-electron system (eV)
  ---------------------------------------------------
  alpha Z        PSCENC =      1694.52919351
  Ewald energy   TEWEN  =    226492.63596885
  -Hartree energ DENC   =   -271372.19462000
  -exchange      EXHF   =         0.00000000
  -V(xc)+E(xc)   XCENC  =      1245.36170902
  PAW double counting   =     39656.53614886   -38476.97807352
  entropy T*S    EENTRO =        -0.09059704
  eigenvalues    EBANDS =     -5424.85520388
  atomic energy  EATOM  =     45441.73369906
  Solvation  Ediel_sol  =         0.00000000
  ---------------------------------------------------
  free energy    TOTEN  =      -743.32177514 eV

  energy without entropy =     -743.23117810  energy(sigma->0) =     -743.27647662


--------------------------------------------------------------------------------------------------------




--------------------------------------- Iteration      1(   5)  ---------------------------------------


     EDDAV:  cpu time   15.6519: real time   15.6926
       DOS:  cpu time    0.0007: real time    0.0007
    CHARGE:  cpu time    0.6180: real time    0.6195
    MIXING:  cpu time    0.0026: real time    0.0037
    --------------------------------------------
      LOOP:  cpu time   16.2732: real time   16.3166

 eigenvalue-minimisations  :  8680
 total energy-change (2. order) :-0.1258614E+01  (-0.1254636E+01)
 number of electron     669.0000493 magnetization      53.8626436
 augmentation part      115.5379777 magnetization      44.8754520

 Broyden mixing:
  rms(total) = 0.17553E+02    rms(broyden)= 0.17552E+02
  rms(prec ) = 0.17778E+02
  weight for this iteration     100.00

 Free energy of the ion-electron system (eV)
  ---------------------------------------------------
  alpha Z        PSCENC =      1694.52919351
  Ewald energy   TEWEN  =    226492.63596885
  -Hartree energ DENC   =   -271372.19462000
  -exchange      EXHF   =         0.00000000
  -V(xc)+E(xc)   XCENC  =      1245.36170902
  PAW double counting   =     39656.53614886   -38476.97807352
  entropy T*S    EENTRO =        -0.09051946
  eigenvalues    EBANDS =     -5426.11389547
  atomic energy  EATOM  =     45441.73369906
  Solvation  Ediel_sol  =         0.00000000
  ---------------------------------------------------
  free energy    TOTEN  =      -744.58038915 eV

  energy without entropy =     -744.48986970  energy(sigma->0) =     -744.53512942


--------------------------------------------------------------------------------------------------------




--------------------------------------- Iteration      1(   6)  ---------------------------------------


    POTLOK:  cpu time    0.0933: real time    0.0959
    SETDIJ:  cpu time    0.0160: real time    0.0160
    EDDIAG:  cpu time    2.6372: real time    2.6452
  RMM-DIIS:  cpu time    7.3549: real time    7.3742
    ORTHCH:  cpu time    0.5831: real time    0.5845
       DOS:  cpu time    0.0007: real time    0.0007
    CHARGE:  cpu time    0.6179: real time    0.6202
    MIXING:  cpu time    0.0026: real time    0.0027
    --------------------------------------------
      LOOP:  cpu time   11.3058: real time   11.3395

 eigenvalue-minimisations  :  7059
 total energy-change (2. order) : 0.1315156E+03  (-0.7002740E+02)
 number of electron     669.0000455 magnetization      50.6370035
 augmentation part      125.4181068 magnetization      38.2329353

 Broyden mixing:
  rms(total) = 0.10416E+02    rms(broyden)= 0.10413E+02
  rms(prec ) = 0.10752E+02
  weight for this iteration     100.00

 eigenvalues of (default mixing * dielectric matrix)
  average eigenvalue GAMMA=   0.9973
  0.9973

 Free energy of the ion-electron system (eV)
  ---------------------------------------------------
  alpha Z        PSCENC =      1694.52919351
  Ewald energy   TEWEN  =    226492.63596885
  -Hartree energ DENC   =   -271712.53388347
  -exchange      EXHF   =         0.00000000
  -V(xc)+E(xc)   XCENC  =      1325.90095023
  PAW double counting   =     47489.15069104   -46373.22749417
  entropy T*S    EENTRO =        -0.06918261
  eigenvalues    EBANDS =     -4971.18468607
  atomic energy  EATOM  =     45441.73369906
  Solvation  Ediel_sol  =         0.00000000
  ---------------------------------------------------
  free energy    TOTEN  =      -613.06474362 eV

  energy without entropy =     -612.99556101  energy(sigma->0) =     -613.03015231


--------------------------------------------------------------------------------------------------------




--------------------------------------- Iteration      1(   7)  ---------------------------------------


    POTLOK:  cpu time    0.0929: real time    0.0997
    SETDIJ:  cpu time    0.0160: real time    0.0161
    EDDIAG:  cpu time    2.6217: real time    2.6282
  RMM-DIIS:  cpu time    7.3744: real time    7.3925
    ORTHCH:  cpu time    0.5835: real time    0.5849
       DOS:  cpu time    0.0007: real time    0.0007
    CHARGE:  cpu time    0.6113: real time    0.6128
    MIXING:  cpu time    0.0026: real time    0.0026
    --------------------------------------------
      LOOP:  cpu time   11.3032: real time   11.3376

 eigenvalue-minimisations  :  7090
 total energy-change (2. order) :-0.1355379E+03  (-0.2460794E+02)
 number of electron     669.0000453 magnetization      49.4554465
 augmentation part      119.3556345 magnetization      40.2658270

 Broyden mixing:
  rms(total) = 0.19729E+02    rms(broyden)= 0.19728E+02
  rms(prec ) = 0.21620E+02
  weight for this iteration     100.00

 eigenvalues of (default mixing * dielectric matrix)
  average eigenvalue GAMMA=   0.6637
  1.1592  0.1681

 Free energy of the ion-electron system (eV)
  ---------------------------------------------------
  alpha Z        PSCENC =      1694.52919351
  Ewald energy   TEWEN  =    226492.63596885
  -Hartree energ DENC   =   -272402.06773438
  -exchange      EXHF   =         0.00000000
  -V(xc)+E(xc)   XCENC  =      1293.91019824
  PAW double counting   =     52916.38915617   -51807.78483616
  entropy T*S    EENTRO =        -0.06775509
  eigenvalues    EBANDS =     -4377.88052242
  atomic energy  EATOM  =     45441.73369906
  Solvation  Ediel_sol  =         0.00000000
  ---------------------------------------------------
  free energy    TOTEN  =      -748.60263223 eV

  energy without entropy =     -748.53487714  energy(sigma->0) =     -748.56875469


--------------------------------------------------------------------------------------------------------




--------------------------------------- Iteration      1(   8)  ---------------------------------------


    POTLOK:  cpu time    0.0928: real time    0.0932
    SETDIJ:  cpu time    0.0159: real time    0.0160
    EDDIAG:  cpu time    2.6205: real time    2.6278
  RMM-DIIS:  cpu time    7.3505: real time    7.3697
    ORTHCH:  cpu time    0.5841: real time    0.5856
       DOS:  cpu time    0.0008: real time    0.0008
    CHARGE:  cpu time    0.6139: real time    0.6154
    MIXING:  cpu time    0.0027: real time    0.0027
    --------------------------------------------
      LOOP:  cpu time   11.2811: real time   11.3111

 eigenvalue-minimisations  :  7043
 total energy-change (2. order) : 0.7397820E+02  (-0.3138139E+01)
 number of electron     669.0000457 magnetization      46.1230409
 augmentation part      118.9582499 magnetization      38.4005404

 Broyden mixing:
  rms(total) = 0.84672E+01    rms(broyden)= 0.84657E+01
  rms(prec ) = 0.10191E+02
  weight for this iteration     100.00

 eigenvalues of (default mixing * dielectric matrix)
  average eigenvalue GAMMA=   0.7956
  1.7318  0.4844  0.1706

 Free energy of the ion-electron system (eV)
  ---------------------------------------------------
  alpha Z        PSCENC =      1694.52919351
  Ewald energy   TEWEN  =    226492.63596885
  -Hartree energ DENC   =   -272118.87764919
  -exchange      EXHF   =         0.00000000
  -V(xc)+E(xc)   XCENC  =      1294.42239318
  PAW double counting   =     54763.35797897   -53660.15273207
  entropy T*S    EENTRO =        -0.04424137
  eigenvalues    EBANDS =     -4582.22904629
  atomic energy  EATOM  =     45441.73369906
  Solvation  Ediel_sol  =         0.00000000
  ---------------------------------------------------
  free energy    TOTEN  =      -674.62443535 eV

  energy without entropy =     -674.58019397  energy(sigma->0) =     -674.60231466


--------------------------------------------------------------------------------------------------------




--------------------------------------- Iteration      1(   9)  ---------------------------------------


    POTLOK:  cpu time    0.0922: real time    0.0926
    SETDIJ:  cpu time    0.0158: real time    0.0159
    EDDIAG:  cpu time    2.6209: real time    2.6273
  RMM-DIIS:  cpu time    7.4044: real time    7.4242
    ORTHCH:  cpu time    0.5836: real time    0.5850
       DOS:  cpu time    0.0007: real time    0.0007
    CHARGE:  cpu time    0.6156: real time    0.6172
    MIXING:  cpu time    0.0029: real time    0.0029
    --------------------------------------------
      LOOP:  cpu time   11.3361: real time   11.3659

 eigenvalue-minimisations  :  7135
 total energy-change (2. order) :-0.2610556E+03  (-0.1335092E+02)
 number of electron     669.0000506 magnetization      44.0940045
 augmentation part      124.2643672 magnetization      34.9130353

 Broyden mixing:
  rms(total) = 0.25340E+02    rms(broyden)= 0.25338E+02
  rms(prec ) = 0.30220E+02
  weight for this iteration     100.00

 eigenvalues of (default mixing * dielectric matrix)
  average eigenvalue GAMMA=   0.7051
  2.0260  0.5082  0.2106  0.0758

 Free energy of the ion-electron system (eV)
  ---------------------------------------------------
  alpha Z        PSCENC =      1694.52919351
  Ewald energy   TEWEN  =    226492.63596885
  -Hartree energ DENC   =   -271715.93683424
  -exchange      EXHF   =         0.00000000
  -V(xc)+E(xc)   XCENC  =      1303.24341664
  PAW double counting   =     58559.32880765   -57474.13554419
  entropy T*S    EENTRO =        -0.05915064
  eigenvalues    EBANDS =     -5237.01956413
  atomic energy  EATOM  =     45441.73369906
  Solvation  Ediel_sol  =         0.00000000
  ---------------------------------------------------
  free energy    TOTEN  =      -935.68000748 eV

  energy without entropy =     -935.62085684  energy(sigma->0) =     -935.65043216


--------------------------------------------------------------------------------------------------------




--------------------------------------- Iteration      1(  10)  ---------------------------------------


    POTLOK:  cpu time    0.0931: real time    0.0947
    SETDIJ:  cpu time    0.0161: real time    0.0161
    EDDIAG:  cpu time    2.6247: real time    2.6312
  RMM-DIIS:  cpu time    7.5305: real time    7.5501
    ORTHCH:  cpu time    0.5977: real time    0.6015
       DOS:  cpu time    0.0007: real time    0.0007
    CHARGE:  cpu time    0.6166: real time    0.6182
    MIXING:  cpu time    0.0033: real time    0.0053
    --------------------------------------------
      LOOP:  cpu time   11.4827: real time   11.5178

 eigenvalue-minimisations  :  7237
 total energy-change (2. order) : 0.1662141E+03  (-0.3361841E+01)
 number of electron     669.0000502 magnetization      43.6720680
 augmentation part      118.8907126 magnetization      35.7883272

 Broyden mixing:
  rms(total) = 0.18282E+02    rms(broyden)= 0.18282E+02
  rms(prec ) = 0.21042E+02
  weight for this iteration     100.00

 eigenvalues of (default mixing * dielectric matrix)
  average eigenvalue GAMMA=   0.6123
  1.9867  0.5057  0.2207  0.2207  0.1277

 Free energy of the ion-electron system (eV)
  ---------------------------------------------------
  alpha Z        PSCENC =      1694.52919351
  Ewald energy   TEWEN  =    226492.63596885
  -Hartree energ DENC   =   -271903.80713854
  -exchange      EXHF   =         0.00000000
  -V(xc)+E(xc)   XCENC  =      1305.15860830
  PAW double counting   =     61291.26982346   -60211.67839588
  entropy T*S    EENTRO =        -0.07259199
  eigenvalues    EBANDS =     -4879.23506307
  atomic energy  EATOM  =     45441.73369906
  Solvation  Ediel_sol  =         0.00000000
  ---------------------------------------------------
  free energy    TOTEN  =      -769.46589630 eV

  energy without entropy =     -769.39330431  energy(sigma->0) =     -769.42960031


--------------------------------------------------------------------------------------------------------




--------------------------------------- Iteration      1(  11)  ---------------------------------------


    POTLOK:  cpu time    0.0935: real time    0.0946
    SETDIJ:  cpu time    0.0162: real time    0.0163
    EDDIAG:  cpu time    2.6162: real time    2.6226
  RMM-DIIS:  cpu time    7.3452: real time    7.3632
    ORTHCH:  cpu time    0.5847: real time    0.5861
       DOS:  cpu time    0.0007: real time    0.0007
    CHARGE:  cpu time    0.6150: real time    0.6165
    MIXING:  cpu time    0.0033: real time    0.0033
    --------------------------------------------
      LOOP:  cpu time   11.2748: real time   11.3033

 eigenvalue-minimisations  :  7040
 total energy-change (2. order) : 0.5461925E+02  (-0.1774898E+01)
 number of electron     669.0000505 magnetization      43.3920756
 augmentation part      122.1605692 magnetization      36.1190858

 Broyden mixing:
  rms(total) = 0.13696E+02    rms(broyden)= 0.13696E+02
  rms(prec ) = 0.16906E+02
  weight for this iteration     100.00

 eigenvalues of (default mixing * dielectric matrix)
  average eigenvalue GAMMA=   0.5747
  1.8093  0.5494  0.3721  0.3721  0.2335  0.1118

 Free energy of the ion-electron system (eV)
  ---------------------------------------------------
  alpha Z        PSCENC =      1694.52919351
  Ewald energy   TEWEN  =    226492.63596885
  -Hartree energ DENC   =   -271680.35593999
  -exchange      EXHF   =         0.00000000
  -V(xc)+E(xc)   XCENC  =      1308.90386914
  PAW double counting   =     60989.53621636   -59912.82536970
  entropy T*S    EENTRO =        -0.06113708
  eigenvalues    EBANDS =     -5048.94314748
  atomic energy  EATOM  =     45441.73369906
  Solvation  Ediel_sol  =         0.00000000
  ---------------------------------------------------
  free energy    TOTEN  =      -714.84664731 eV

  energy without entropy =     -714.78551023  energy(sigma->0) =     -714.81607877


--------------------------------------------------------------------------------------------------------




--------------------------------------- Iteration      1(  12)  ---------------------------------------


    POTLOK:  cpu time    0.0919: real time    0.0924
    SETDIJ:  cpu time    0.0162: real time    0.0163
    EDDIAG:  cpu time    2.6145: real time    2.6219
  RMM-DIIS:  cpu time    7.3612: real time    7.3800
    ORTHCH:  cpu time    0.5841: real time    0.5855
       DOS:  cpu time    0.0007: real time    0.0007
    CHARGE:  cpu time    0.6146: real time    0.6161
    MIXING:  cpu time    0.0035: real time    0.0035
    --------------------------------------------
      LOOP:  cpu time   11.2867: real time   11.3163

 eigenvalue-minimisations  :  7041
 total energy-change (2. order) : 0.1071655E+03  (-0.2841849E+01)
 number of electron     669.0000496 magnetization      42.0127338
 augmentation part      119.9953466 magnetization      34.9516374

 Broyden mixing:
  rms(total) = 0.58090E+01    rms(broyden)= 0.58072E+01
  rms(prec ) = 0.70875E+01
  weight for this iteration     100.00

 eigenvalues of (default mixing * dielectric matrix)
  average eigenvalue GAMMA=   0.5552
  1.6891  0.4275  0.4275  0.4988  0.4988  0.2314  0.1131

 Free energy of the ion-electron system (eV)
  ---------------------------------------------------
  alpha Z        PSCENC =      1694.52919351
  Ewald energy   TEWEN  =    226492.63596885
  -Hartree energ DENC   =   -271830.40947859
  -exchange      EXHF   =         0.00000000
  -V(xc)+E(xc)   XCENC  =      1305.24735083
  PAW double counting   =     59630.45123430   -58550.43352010
  entropy T*S    EENTRO =        -0.06370530
  eigenvalues    EBANDS =     -4791.37187549
  atomic energy  EATOM  =     45441.73369906
  Solvation  Ediel_sol  =         0.00000000
  ---------------------------------------------------
  free energy    TOTEN  =      -607.68113293 eV

  energy without entropy =     -607.61742763  energy(sigma->0) =     -607.64928028


--------------------------------------------------------------------------------------------------------




--------------------------------------- Iteration      1(  13)  ---------------------------------------


    POTLOK:  cpu time    0.0940: real time    0.1018
    SETDIJ:  cpu time    0.0162: real time    0.0162
    EDDIAG:  cpu time    2.6167: real time    2.6232
  RMM-DIIS:  cpu time    7.3416: real time    7.3615
    ORTHCH:  cpu time    0.5849: real time    0.5863
       DOS:  cpu time    0.0007: real time    0.0007
    CHARGE:  cpu time    0.6183: real time    0.6199
    MIXING:  cpu time    0.0038: real time    0.0038
    --------------------------------------------
      LOOP:  cpu time   11.2762: real time   11.3133

 eigenvalue-minimisations  :  7046
 total energy-change (2. order) : 0.1033267E+02  (-0.2537741E+01)
 number of electron     669.0000466 magnetization      40.2922090
 augmentation part      120.9013466 magnetization      32.3433691

 Broyden mixing:
  rms(total) = 0.53244E+01    rms(broyden)= 0.53216E+01
  rms(prec ) = 0.65435E+01
  weight for this iteration     100.00

 eigenvalues of (default mixing * dielectric matrix)
  average eigenvalue GAMMA=   0.5439
  1.9356  0.3972  0.3972  0.5111  0.5111  0.2856  0.1136  0.2002

 Free energy of the ion-electron system (eV)
  ---------------------------------------------------
  alpha Z        PSCENC =      1694.52919351
  Ewald energy   TEWEN  =    226492.63596885
  -Hartree energ DENC   =   -271605.16802426
  -exchange      EXHF   =         0.00000000
  -V(xc)+E(xc)   XCENC  =      1305.46456254
  PAW double counting   =     59371.48556579   -58293.67742149
  entropy T*S    EENTRO =        -0.08602837
  eigenvalues    EBANDS =     -5004.26597525
  atomic energy  EATOM  =     45441.73369906
  Solvation  Ediel_sol  =         0.00000000
  ---------------------------------------------------
  free energy    TOTEN  =      -597.34845961 eV

  energy without entropy =     -597.26243124  energy(sigma->0) =     -597.30544542


--------------------------------------------------------------------------------------------------------




--------------------------------------- Iteration      1(  14)  ---------------------------------------


    POTLOK:  cpu time    0.0924: real time    0.0928
    SETDIJ:  cpu time    0.0160: real time    0.0161
    EDDIAG:  cpu time    2.6287: real time    2.6352
  RMM-DIIS:  cpu time    7.3564: real time    7.3753
    ORTHCH:  cpu time    0.5846: real time    0.5865
       DOS:  cpu time    0.0007: real time    0.0007
    CHARGE:  cpu time    0.6160: real time    0.6175
    MIXING:  cpu time    0.0038: real time    0.0038
    --------------------------------------------
      LOOP:  cpu time   11.2986: real time   11.3279

 eigenvalue-minimisations  :  7059
 total energy-change (2. order) : 0.7298072E+01  (-0.6950562E+00)
 number of electron     669.0000469 magnetization      39.4330748
 augmentation part      121.0952620 magnetization      32.6553687

 Broyden mixing:
  rms(total) = 0.38160E+01    rms(broyden)= 0.38147E+01
  rms(prec ) = 0.40035E+01
  weight for this iteration     100.00

 eigenvalues of (default mixing * dielectric matrix)
  average eigenvalue GAMMA=   0.5201
  1.9951  0.3998  0.3998  0.4935  0.4206  0.4206  0.1134  0.2194  0.2194

 Free energy of the ion-electron system (eV)
  ---------------------------------------------------
  alpha Z        PSCENC =      1694.52919351
  Ewald energy   TEWEN  =    226492.63596885
  -Hartree energ DENC   =   -271687.37525262
  -exchange      EXHF   =         0.00000000
  -V(xc)+E(xc)   XCENC  =      1305.47532773
  PAW double counting   =     60445.77646010   -59372.42804475
  entropy T*S    EENTRO =        -0.05947362
  eigenvalues    EBANDS =     -4910.33826547
  atomic energy  EATOM  =     45441.73369906
  Solvation  Ediel_sol  =         0.00000000
  ---------------------------------------------------
  free energy    TOTEN  =      -590.05038720 eV

  energy without entropy =     -589.99091359  energy(sigma->0) =     -590.02065040


--------------------------------------------------------------------------------------------------------




--------------------------------------- Iteration      1(  15)  ---------------------------------------


    POTLOK:  cpu time    0.0920: real time    0.0925
    SETDIJ:  cpu time    0.0159: real time    0.0159
    EDDIAG:  cpu time    2.6146: real time    2.6211
  RMM-DIIS:  cpu time    7.3363: real time    7.3543
    ORTHCH:  cpu time    0.5846: real time    0.5860
       DOS:  cpu time    0.0007: real time    0.0007
    CHARGE:  cpu time    0.6182: real time    0.6197
    MIXING:  cpu time    0.0042: real time    0.0042
    --------------------------------------------
      LOOP:  cpu time   11.2665: real time   11.2945

 eigenvalue-minimisations  :  7043
 total energy-change (2. order) : 0.3907285E+01  (-0.1959069E+00)
 number of electron     669.0000468 magnetization      38.4826863
 augmentation part      121.0220086 magnetization      31.2703710

 Broyden mixing:
  rms(total) = 0.24046E+01    rms(broyden)= 0.24040E+01
  rms(prec ) = 0.24795E+01
  weight for this iteration     100.00

 eigenvalues of (default mixing * dielectric matrix)
  average eigenvalue GAMMA=   0.5266
[...]
      9.091476  3.235121 12.874115            0           0           0  
      6.408573  0.000000  9.302014            0           0           0  
      9.604283  0.000000  9.367117            0           0           0  
      8.020511  1.218780 11.402113            0           0           0  
     11.204824  1.198484 11.346318            0           0           0  
      7.998941  4.479117  8.039746            0           0           0  
     11.204978  4.470312  8.128654            0           0           0  
      9.604048  0.000000 13.324754    -0.057008   -0.000460    0.998374  
 
   2 f  =    7.966619 THz    50.055745 2PiTHz  265.737807 cm-1    32.947301 meV
             X         Y         Z           dx          dy          dz
      1.601066  3.235121  4.852682            0           0           0  
      4.803199  3.235121  4.852682            0           0           0  
      1.601066  0.000000  1.617561            0           0           0  
      4.803199  0.000000  1.617561            0           0           0  
      0.000000  3.235121  1.617561            0           0           0  
      3.202133  3.235121  1.617561            0           0           0  
      0.000000  0.000000  4.852682            0           0           0  
      3.202133  0.000000  4.852682            0           0           0  
      1.565704  3.235121 11.437407            0           0           0  
      4.811547  3.235121 11.282472            0           0           0  
      1.595678  0.000000  8.064492            0           0           0  
      4.807661  0.000000  8.075706            0           0           0  
      0.027037  3.235121  8.126483            0           0           0  
      3.208614  3.235121  8.080604            0           0           0  
     12.746081  0.000000 11.242373            0           0           0  
      3.203171  0.000000 11.248487            0           0           0  
      0.000000  3.235121  3.613243            0           0           0  
      3.202133  3.235121  3.613243            0           0           0  
      0.000000  0.000000  0.378121            0           0           0  
      3.202133  0.000000  0.378121            0           0           0  
      1.601066  5.230803  4.852682            0           0           0  
      4.803199  5.230803  4.852682            0           0           0  
      1.601066  1.995682  1.617561            0           0           0  
      4.803199  1.995682  1.617561            0           0           0  
      0.000000  3.235121  6.092122            0           0           0  
      3.202133  3.235121  6.092122            0           0           0  
      0.000000  0.000000  2.857000            0           0           0  
      3.202133  0.000000  2.857000            0           0           0  
      1.601066  1.239440  4.852682            0           0           0  
      4.803199  1.239440  4.852682            0           0           0  
      1.601066  4.474561  1.617561            0           0           0  
      4.803199  4.474561  1.617561            0           0           0  
      0.240209  3.235121 10.038489            0           0           0  
      3.189323  3.235121 10.056734            0           0           0  
     12.795886  0.000000  6.842770            0           0           0  
      3.205088  0.000000  6.837047            0           0           0  
      1.594269  5.261717 11.423229            0           0           0  
      4.813249  5.239010 11.351046            0           0           0  
      1.614405  1.993743  8.027782            0           0           0  
      4.807858  1.995372  8.088888            0           0           0  
      0.526028  3.235121 12.887955            0           0           0  
      3.242859  3.235121 12.460958            0           0           0  
     12.799282  0.000000  9.302723            0           0           0  
      3.198460  0.000000  9.298720            0           0           0  
      1.594269  1.208526 11.423229            0           0           0  
      4.813249  1.231233 11.351046            0           0           0  
      1.614405  4.476500  8.027782            0           0           0  
      4.807858  4.474871  8.088888            0           0           0  
      8.005332  3.235121  4.852682            0           0           0  
     11.207465  3.235121  4.852682            0           0           0  
      8.005332  0.000000  1.617561            0           0           0  
     11.207465  0.000000  1.617561            0           0           0  
      6.404266  3.235121  1.617561            0           0           0  
      9.606399  3.235121  1.617561            0           0           0  
      6.404266  0.000000  4.852682            0           0           0  
      9.606399  0.000000  4.852682            0           0           0  
      8.049541  3.235121 11.420162            0           0           0  
      8.029110  0.000000  8.095657            0           0           0  
     11.183840  0.000000  8.101712            0           0           0  
      6.404475  3.235121  8.078935            0           0           0  
      9.586091  3.235121  8.130316            0           0           0  
      6.431900  0.000000 11.241940            0           0           0  
      9.698377  0.000000 11.553359            0           0           0  
      6.404266  3.235121  3.613243            0           0           0  
      9.606399  3.235121  3.613243            0           0           0  
      6.404266  0.000000  0.378121            0           0           0  
      9.606399  0.000000  0.378121            0           0           0  
      8.005332  5.230803  4.852682            0           0           0  
     11.207465  5.230803  4.852682            0           0           0  
      8.005332  1.995682  1.617561            0           0           0  
     11.207465  1.995682  1.617561            0           0           0  
      6.404266  3.235121  6.092122            0           0           0  
      9.606399  3.235121  6.092122            0           0           0  
      6.404266  0.000000  2.857000            0           0           0  
      9.606399  0.000000  2.857000            0           0           0  
      8.005332  1.239440  4.852682            0           0           0  
     11.207465  1.239440  4.852682            0           0           0  
      8.005332  4.474561  1.617561            0           0           0  
     11.207465  4.474561  1.617561            0           0           0  
      6.426844  3.235121 10.056628            0           0           0  
      9.391535  3.235121 10.035823            0           0           0  
      6.412796  0.000000  6.845706            0           0           0  
      9.608374  0.000000  6.849116            0           0           0  
      8.020511  5.251463 11.402113            0           0           0  
     11.204824  5.271759 11.346318            0           0           0  
      7.998941  1.991126  8.039746            0           0           0  
     11.204978  1.999931  8.128654            0           0           0  
      6.379580  3.235121 12.463247            0           0           0  
      9.091476  3.235121 12.874115            0           0           0  
      6.408573  0.000000  9.302014            0           0           0  
      9.604283  0.000000  9.367117            0           0           0  
      8.020511  1.218780 11.402113            0           0           0  
     11.204824  1.198484 11.346318            0           0           0  
      7.998941  4.479117  8.039746            0           0           0  
     11.204978  4.470312  8.128654            0           0           0  
      9.604048  0.000000 13.324754     0.998365   -0.004266    0.057006  
 
   3 f  =    6.335843 THz    39.809277 2PiTHz  211.340973 cm-1    26.202951 meV
             X         Y         Z           dx          dy          dz
      1.601066  3.235121  4.852682            0           0           0  
      4.803199  3.235121  4.852682            0           0           0  
      1.601066  0.000000  1.617561            0           0           0  
      4.803199  0.000000  1.617561            0           0           0  
      0.000000  3.235121  1.617561            0           0           0  
      3.202133  3.235121  1.617561            0           0           0  
      0.000000  0.000000  4.852682            0           0           0  
      3.202133  0.000000  4.852682            0           0           0  
      1.565704  3.235121 11.437407            0           0           0  
      4.811547  3.235121 11.282472            0           0           0  
      1.595678  0.000000  8.064492            0           0           0  
      4.807661  0.000000  8.075706            0           0           0  
      0.027037  3.235121  8.126483            0           0           0  
      3.208614  3.235121  8.080604            0           0           0  
     12.746081  0.000000 11.242373            0           0           0  
      3.203171  0.000000 11.248487            0           0           0  
      0.000000  3.235121  3.613243            0           0           0  
      3.202133  3.235121  3.613243            0           0           0  
      0.000000  0.000000  0.378121            0           0           0  
      3.202133  0.000000  0.378121            0           0           0  
      1.601066  5.230803  4.852682            0           0           0  
      4.803199  5.230803  4.852682            0           0           0  
      1.601066  1.995682  1.617561            0           0           0  
      4.803199  1.995682  1.617561            0           0           0  
      0.000000  3.235121  6.092122            0           0           0  
      3.202133  3.235121  6.092122            0           0           0  
      0.000000  0.000000  2.857000            0           0           0  
      3.202133  0.000000  2.857000            0           0           0  
      1.601066  1.239440  4.852682            0           0           0  
      4.803199  1.239440  4.852682            0           0           0  
      1.601066  4.474561  1.617561            0           0           0  
      4.803199  4.474561  1.617561            0           0           0  
      0.240209  3.235121 10.038489            0           0           0  
      3.189323  3.235121 10.056734            0           0           0  
     12.795886  0.000000  6.842770            0           0           0  
      3.205088  0.000000  6.837047            0           0           0  
      1.594269  5.261717 11.423229            0           0           0  
      4.813249  5.239010 11.351046            0           0           0  
      1.614405  1.993743  8.027782            0           0           0  
      4.807858  1.995372  8.088888            0           0           0  
      0.526028  3.235121 12.887955            0           0           0  
      3.242859  3.235121 12.460958            0           0           0  
     12.799282  0.000000  9.302723            0           0           0  
      3.198460  0.000000  9.298720            0           0           0  
      1.594269  1.208526 11.423229            0           0           0  
      4.813249  1.231233 11.351046            0           0           0  
      1.614405  4.476500  8.027782            0           0           0  
      4.807858  4.474871  8.088888            0           0           0  
      8.005332  3.235121  4.852682            0           0           0  
     11.207465  3.235121  4.852682            0           0           0  
      8.005332  0.000000  1.617561            0           0           0  
     11.207465  0.000000  1.617561            0           0           0  
      6.404266  3.235121  1.617561            0           0           0  
      9.606399  3.235121  1.617561            0           0           0  
      6.404266  0.000000  4.852682            0           0           0  
      9.606399  0.000000  4.852682            0           0           0  
      8.049541  3.235121 11.420162            0           0           0  
      8.029110  0.000000  8.095657            0           0           0  
     11.183840  0.000000  8.101712            0           0           0  
      6.404475  3.235121  8.078935            0           0           0  
      9.586091  3.235121  8.130316            0           0           0  
      6.431900  0.000000 11.241940            0           0           0  
      9.698377  0.000000 11.553359            0           0           0  
      6.404266  3.235121  3.613243            0           0           0  
      9.606399  3.235121  3.613243            0           0           0  
      6.404266  0.000000  0.378121            0           0           0  
      9.606399  0.000000  0.378121            0           0           0  
      8.005332  5.230803  4.852682            0           0           0  
     11.207465  5.230803  4.852682            0           0           0  
      8.005332  1.995682  1.617561            0           0           0  
     11.207465  1.995682  1.617561            0           0           0  
      6.404266  3.235121  6.092122            0           0           0  
      9.606399  3.235121  6.092122            0           0           0  
      6.404266  0.000000  2.857000            0           0           0  
      9.606399  0.000000  2.857000            0           0           0  
      8.005332  1.239440  4.852682            0           0           0  
     11.207465  1.239440  4.852682            0           0           0  
      8.005332  4.474561  1.617561            0           0           0  
     11.207465  4.474561  1.617561            0           0           0  
      6.426844  3.235121 10.056628            0           0           0  
      9.391535  3.235121 10.035823            0           0           0  
      6.412796  0.000000  6.845706            0           0           0  
      9.608374  0.000000  6.849116            0           0           0  
      8.020511  5.251463 11.402113            0           0           0  
     11.204824  5.271759 11.346318            0           0           0  
      7.998941  1.991126  8.039746            0           0           0  
     11.204978  1.999931  8.128654            0           0           0  
      6.379580  3.235121 12.463247            0           0           0  
      9.091476  3.235121 12.874115            0           0           0  
      6.408573  0.000000  9.302014            0           0           0  
      9.604283  0.000000  9.367117            0           0           0  
      8.020511  1.218780 11.402113            0           0           0  
     11.204824  1.198484 11.346318            0           0           0  
      7.998941  4.479117  8.039746            0           0           0  
     11.204978  4.470312  8.128654            0           0           0  
      9.604048  0.000000 13.324754    -0.004233   -0.999991   -0.000702  
 
 Finite differences POTIM=  1.500000000000000E-002
  LATTYP: Found a simple orthorhombic cell.
 ALAT       =     6.4702430000
 B/A-ratio  =     1.9796060210
 C/A-ratio  =     4.0000000000
  
  Lattice vectors:
  
 A1 = (   0.0000000000,  -6.4702430000,   0.0000000000)
 A2 = ( -12.8085320000,   0.0000000000,   0.0000000000)
 A3 = (   0.0000000000,   0.0000000000, -25.8809720000)


Analysis of symmetry for initial positions (statically):
=====================================================================
 Subroutine PRICEL returns:
 Original cell was already a primitive cell.
 

 Routine SETGRP: Setting up the symmetry group for a 
 simple orthorhombic supercell.


 Subroutine GETGRP returns: Found  2 space group operations
 (whereof  2 operations were pure point group operations)
 out of a pool of  8 trial point group operations.


The static configuration has the point symmetry C_1h.


Analysis of symmetry for dynamics (positions and initial velocities):
=====================================================================
 Subroutine PRICEL returns:
 Original cell was already a primitive cell.
 

 Routine SETGRP: Setting up the symmetry group for a 
 simple orthorhombic supercell.


 Subroutine GETGRP returns: Found  2 space group operations
 (whereof  2 operations were pure point group operations)
 out of a pool of  8 trial point group operations.


The dynamic configuration has the point symmetry C_1h.


Analysis of constrained symmetry for selective dynamics:
=====================================================================
 Subroutine PRICEL returns:
 Original cell was already a primitive cell.
 

 Routine SETGRP: Setting up the symmetry group for a 
 simple orthorhombic supercell.


 Subroutine GETGRP returns: Found  2 space group operations
 (whereof  2 operations were pure point group operations)
 out of a pool of  8 trial point group operations.


The constrained configuration has the point symmetry C_1h.


Analysis of structural, dynamic, and magnetic symmetry:
=====================================================================
 Subroutine PRICEL returns:
 Original cell was already a primitive cell.
 

 Routine SETGRP: Setting up the symmetry group for a 
 simple orthorhombic supercell.


 Subroutine GETGRP returns: Found  2 space group operations
 (whereof  2 operations were pure point group operations)
 out of a pool of  8 trial point group operations.


The magnetic configuration has the point symmetry C_1h.


 Subroutine INISYM returns: Found  2 space group operations
 (whereof  2 operations are pure point group operations),
 and found     1 'primitive' translations

 
 KPOINTS: Automatic mesh                          

Automatic generation of k-mesh.
Space group operators:
 irot       det(A)        alpha          n_x          n_y          n_z        tau_x        tau_y        tau_z
    1     1.000000     0.000001     1.000000     0.000000     0.000000     0.000000     0.000000     0.000000
    2    -1.000000   180.000000     0.000000     1.000000     0.000000     0.000000     0.000000     0.000000
 
 Subroutine IBZKPT returns following result:
 ===========================================
 
 Found      4 irreducible k-points:
 
 Following reciprocal coordinates:
            Coordinates               Weight
  0.000000  0.000000  0.000000      1.000000
  0.333333  0.000000  0.000000      2.000000
  0.000000  0.333333  0.000000      2.000000
  0.333333  0.333333  0.000000      4.000000
 
 Following cartesian coordinates:
            Coordinates               Weight
  0.000000  0.000000  0.000000      1.000000
  0.026024  0.000000  0.000000      2.000000
  0.000000  0.051518  0.000000      2.000000
  0.026024  0.051518  0.000000      4.000000
 
     LOOP+:  cpu time  195.9146: real time  196.5037
    4ORBIT:  cpu time    0.0000: real time    0.0000

 total amount of memory used by VASP MPI-rank0   171690. kBytes
=======================================================================

   base      :      30000. kBytes
   nonlr-proj:      19162. kBytes
   fftplans  :       4196. kBytes
   grid      :      37119. kBytes
   one-center:       2985. kBytes
   wavefun   :      78228. kBytes
 
  
  
 General timing and accounting informations for this job:
 ========================================================
  
                  Total CPU time used (sec):     1758.110
                            User time (sec):     1733.867
                          System time (sec):       24.242
                         Elapsed time (sec):     1764.485
  
                   Maximum memory used (kb):      412512.
                   Average memory used (kb):           0.
  
                          Minor page faults:      1249585
                          Major page faults:          185
                 Voluntary context switches:         3978
