<?xml version="1.0" encoding="ISO-8859-1"?>
<modeling>
 <generator>
  <i name="program" type="string">vasp </i>
  <i name="version" type="string">5.4.4.18Apr17-6-g9f103f2a35  </i>
  <i name="subversion" type="string">(build Feb 25 2019 10:51:38) complex            parallel </i>
  <i name="platform" type="string">LinuxIFC </i>
  <i name="date" type="string">2023 03 14 </i>
  <i name="time" type="string">11:40:47 </i>
 </generator>
 <incar>
  <i type="string" name="PREC">normal</i>
  <i type="string" name="ALGO"> Fast</i>
  <i type="int" name="ISPIN">     2</i>
  <i type="int" name="MAXMIX">    60</i>
  <i type="int" name="ICHARG">     2</i>
  <i type="int" name="NELM">    60</i>
  <i type="int" name="NELMIN">     4</i>
  <i type="int" name="IBRION">     5</i>
  <i type="int" name="NFREE">     2</i>
  <i name="EDIFF">      0.00000100</i>
  <i name="EDIFFG">     -0.05000000</i>
  <i type="int" name="NSW">   500</i>
  <i type="int" name="ISIF">     2</i>
  <i name="ENCUT">    500.00000000</i>
  <v name="MAGMOM">      0.60000000      0.60000000      0.60000000      0.60000000      0.60000000      0.60000000      0.60000000      0.60000000      0.60000000      0.60000000      0.60000000      0.60000000      0.60000000      0.60000000      0.60000000      0.60000000      0.60000000      0.60000000      0.60000000      0.60000000
      0.60000000      0.60000000      0.60000000      0.60000000      0.60000000      0.60000000      0.60000000      0.60000000      0.60000000      0.60000000      0.60000000      0.60000000      0.60000000      0.60000000      0.60000000      0.60000000      0.60000000      0.60000000      0.60000000      0.60000000
      0.60000000      0.60000000      0.60000000      0.60000000      0.60000000      0.60000000      0.60000000      0.60000000      0.60000000      0.60000000      0.60000000      0.60000000      0.60000000      0.60000000      0.60000000      0.60000000      0.60000000      0.60000000      0.60000000      0.60000000
      0.60000000      0.60000000      0.60000000      0.60000000      0.60000000      0.60000000      0.60000000      0.60000000      0.60000000      0.60000000      0.60000000      0.60000000      0.60000000      0.60000000      0.60000000      0.60000000      0.60000000      0.60000000      0.60000000      0.60000000
      0.60000000      0.60000000      0.60000000      0.60000000      0.60000000      0.60000000      0.60000000      0.60000000      0.60000000      0.60000000      0.60000000      0.60000000      0.60000000      0.60000000      0.60000000      0.60000000</v>
  <i type="string" name="LREAL"> Auto</i>
  <i type="int" name="ISMEAR">     0</i>
  <i name="SIGMA">      0.05000000</i>
  <i type="logical" name="LWAVE"> F  </i>
  <i type="logical" name="LCHARG"> F  </i>
  <i type="logical" name="LVHAR"> T  </i>
  <v type="int" name="KPOINT_BSE">    -1     0     0     0</v>
  <i type="int" name="NELM">    60</i>
  <i type="string" name="GGA"> Rp</i>
 </incar>
 <structure name="primitive_cell" >
  <crystal>
   <varray name="basis" >
    <v>      12.80853200       0.00000000       0.00000000 </v>
    <v>       0.00000000       6.47024300       0.00000000 </v>
    <v>       0.00000000       0.00000000      25.88097200 </v>
   </varray>
   <i name="volume">   2144.86781344 </i>
   <varray name="rec_basis" >
    <v>       0.07807296       0.00000000       0.00000000 </v>
    <v>       0.00000000       0.15455370       0.00000000 </v>
    <v>       0.00000000       0.00000000       0.03863843 </v>
   </varray>
  </crystal>
  <varray name="positions" >
   <v>       0.12500000      -0.50000000       0.18750000 </v>
   <v>       0.12500000      -0.19156000       0.18750000 </v>
   <v>       0.12500000       0.19156000       0.18750000 </v>
   <v>       0.00000000      -0.50000000       0.13961000 </v>
   <v>       0.25000000      -0.50000000       0.13961000 </v>
   <v>       0.00000000      -0.50000000       0.23539000 </v>
   <v>       0.25000000      -0.50000000       0.23539000 </v>
   <v>       0.37500000      -0.50000000       0.18750000 </v>
   <v>      -0.12500000      -0.50000000       0.18750000 </v>
   <v>       0.12604139       0.30814038       0.31018085 </v>
   <v>       0.12604139      -0.30814038       0.31018085 </v>
   <v>       0.12500000       0.30844000       0.06250000 </v>
   <v>       0.12500000      -0.30844000       0.06250000 </v>
   <v>       0.25050598      -0.50000000       0.31222183 </v>
   <v>       0.00000000      -0.50000000       0.06250000 </v>
   <v>       0.25000000      -0.50000000       0.06250000 </v>
   <v>       0.00000000       0.00000000       0.18750000 </v>
   <v>       0.25000000       0.00000000       0.18750000 </v>
   <v>       0.00211083      -0.50000000       0.31399451 </v>
   <v>       0.37500000      -0.19156000       0.18750000 </v>
   <v>       0.37500000       0.19156000       0.18750000 </v>
   <v>      -0.12500000      -0.19156000       0.18750000 </v>
   <v>      -0.12500000       0.19156000       0.18750000 </v>
   <v>       0.25023067       0.00000000       0.26417274 </v>
   <v>       0.00000000       0.00000000       0.11039000 </v>
   <v>       0.25000000       0.00000000       0.11039000 </v>
   <v>      -0.00098729       0.00000000       0.26439386 </v>
   <v>       0.12457932       0.00000000       0.31159927 </v>
   <v>       0.12500000       0.00000000       0.06250000 </v>
   <v>       0.37500000       0.30844000       0.06250000 </v>
   <v>       0.37500000      -0.30844000       0.06250000 </v>
   <v>      -0.12500000       0.30844000       0.06250000 </v>
   <v>      -0.12500000      -0.30844000       0.06250000 </v>
   <v>       0.37536372       0.30839207       0.31254188 </v>
   <v>       0.37536372      -0.30839207       0.31254188 </v>
   <v>      -0.12519422       0.30909666       0.31407840 </v>
   <v>      -0.12519422      -0.30909666       0.31407840 </v>
   <v>      -0.50000000      -0.50000000       0.13961000 </v>
   <v>      -0.25000000      -0.50000000       0.13961000 </v>
   <v>      -0.50000000      -0.50000000       0.23539000 </v>
   <v>      -0.25000000      -0.50000000       0.23539000 </v>
   <v>       0.01875385      -0.50000000       0.38787139 </v>
   <v>       0.24899985      -0.50000000       0.38857638 </v>
   <v>       0.37534832       0.00000000       0.31203257 </v>
   <v>       0.37500000       0.00000000       0.06250000 </v>
   <v>      -0.12500000       0.00000000       0.06250000 </v>
   <v>      -0.12684452       0.00000000       0.31303740 </v>
   <v>       0.24971325       0.00000000       0.35928788 </v>
   <v>      -0.00072216       0.00000000       0.35944257 </v>
   <v>       0.00000000       0.00000000       0.01461000 </v>
   <v>       0.25000000       0.00000000       0.01461000 </v>
   <v>      -0.49998367      -0.50000000       0.31215734 </v>
   <v>      -0.50000000      -0.50000000       0.06250000 </v>
   <v>      -0.25000000      -0.50000000       0.06250000 </v>
   <v>      -0.50000000       0.00000000       0.18750000 </v>
   <v>      -0.25000000       0.00000000       0.18750000 </v>
   <v>      -0.25158551      -0.50000000       0.31414261 </v>
   <v>      -0.24984582       0.00000000       0.26463906 </v>
   <v>      -0.50000000       0.00000000       0.11039000 </v>
   <v>      -0.25000000       0.00000000       0.11039000 </v>
   <v>      -0.49933403       0.00000000       0.26450730 </v>
   <v>      -0.37500000      -0.50000000       0.18750000 </v>
   <v>       0.12223911      -0.50000000       0.44192341 </v>
   <v>      -0.37500000      -0.19156000       0.18750000 </v>
   <v>      -0.37500000       0.19156000       0.18750000 </v>
   <v>       0.12446926      -0.18678218       0.44137557 </v>
   <v>       0.12446926       0.18678218       0.44137557 </v>
   <v>      -0.49823726      -0.50000000       0.38857225 </v>
   <v>       0.37565173      -0.50000000       0.43593695 </v>
   <v>      -0.26677506      -0.50000000       0.38776839 </v>
   <v>      -0.37549899       0.30773593       0.31064314 </v>
   <v>      -0.37549899      -0.30773593       0.31064314 </v>
   <v>      -0.37500000       0.30844000       0.06250000 </v>
   <v>      -0.37500000      -0.30844000       0.06250000 </v>
   <v>      -0.49966371       0.00000000       0.35941519 </v>
   <v>      -0.50000000       0.00000000       0.01461000 </v>
   <v>      -0.25000000       0.00000000       0.01461000 </v>
   <v>      -0.25016521       0.00000000       0.36193066 </v>
   <v>       0.25008102       0.00000000       0.43462383 </v>
   <v>      -0.00487576       0.00000000       0.43438759 </v>
   <v>       0.37578457      -0.19029164       0.43858656 </v>
   <v>       0.37578457       0.19029164       0.43858656 </v>
   <v>      -0.12520620      -0.18523019       0.43840388 </v>
   <v>      -0.12520620       0.18523019       0.43840388 </v>
   <v>       0.25317959      -0.50000000       0.48147178 </v>
   <v>      -0.37314361       0.00000000       0.31280346 </v>
   <v>      -0.37500000       0.00000000       0.06250000 </v>
   <v>       0.04106860      -0.50000000       0.49797027 </v>
   <v>      -0.49784256       0.00000000       0.43437086 </v>
   <v>      -0.24281898       0.00000000       0.44640360 </v>
   <v>       0.49807271      -0.50000000       0.48156024 </v>
   <v>      -0.37154853      -0.50000000       0.44125706 </v>
   <v>      -0.37381499      -0.18836701       0.44055969 </v>
   <v>      -0.37381499       0.18836701       0.44055969 </v>
   <v>      -0.29020153      -0.50000000       0.49743554 </v>
   <v>      -0.25018353       0.00000000      -0.48515249 </v>
  </varray>
 </structure>
 <varray name="primitive_index" >
  <v type="int" >        1 </v>
  <v type="int" >       21 </v>
  <v type="int" >       29 </v>
  <v type="int" >       17 </v>
  <v type="int" >       18 </v>
  <v type="int" >       25 </v>
  <v type="int" >       26 </v>
  <v type="int" >        2 </v>
  <v type="int" >       50 </v>
  <v type="int" >       39 </v>
  <v type="int" >       47 </v>
  <v type="int" >       23 </v>
  <v type="int" >       31 </v>
  <v type="int" >       14 </v>
  <v type="int" >        5 </v>
  <v type="int" >        6 </v>
  <v type="int" >        7 </v>
  <v type="int" >        8 </v>
  <v type="int" >       13 </v>
  <v type="int" >       22 </v>
  <v type="int" >       30 </v>
  <v type="int" >       69 </v>
  <v type="int" >       77 </v>
  <v type="int" >       36 </v>
  <v type="int" >       27 </v>
  <v type="int" >       28 </v>
  <v type="int" >       35 </v>
  <v type="int" >       11 </v>
  <v type="int" >        3 </v>
  <v type="int" >       24 </v>
  <v type="int" >       32 </v>
  <v type="int" >       71 </v>
  <v type="int" >       79 </v>
  <v type="int" >       40 </v>
  <v type="int" >       48 </v>
  <v type="int" >       87 </v>
  <v type="int" >       95 </v>
  <v type="int" >       64 </v>
  <v type="int" >       65 </v>
  <v type="int" >       72 </v>
  <v type="int" >       73 </v>
  <v type="int" >       33 </v>
  <v type="int" >       34 </v>
  <v type="int" >       12 </v>
  <v type="int" >        4 </v>
  <v type="int" >       52 </v>
  <v type="int" >       59 </v>
  <v type="int" >       44 </v>
  <v type="int" >       43 </v>
  <v type="int" >       19 </v>
  <v type="int" >       20 </v>
  <v type="int" >       60 </v>
  <v type="int" >       53 </v>
  <v type="int" >       54 </v>
  <v type="int" >       55 </v>
  <v type="int" >       56 </v>
  <v type="int" >       61 </v>
  <v type="int" >       83 </v>
  <v type="int" >       74 </v>
  <v type="int" >       75 </v>
  <v type="int" >       82 </v>
  <v type="int" >       49 </v>
  <v type="int" >        9 </v>
  <v type="int" >       68 </v>
  <v type="int" >       76 </v>
  <v type="int" >       37 </v>
  <v type="int" >       45 </v>
  <v type="int" >       80 </v>
  <v type="int" >       10 </v>
  <v type="int" >       81 </v>
  <v type="int" >       86 </v>
  <v type="int" >       94 </v>
  <v type="int" >       70 </v>
  <v type="int" >       78 </v>
  <v type="int" >       90 </v>
  <v type="int" >       66 </v>
  <v type="int" >       67 </v>
  <v type="int" >       91 </v>
  <v type="int" >       16 </v>
  <v type="int" >       15 </v>
  <v type="int" >       38 </v>
  <v type="int" >       46 </v>
  <v type="int" >       85 </v>
  <v type="int" >       93 </v>
  <v type="int" >       42 </v>
  <v type="int" >       58 </v>
  <v type="int" >       51 </v>
  <v type="int" >       41 </v>
  <v type="int" >       62 </v>
  <v type="int" >       63 </v>
  <v type="int" >       88 </v>
  <v type="int" >       57 </v>
  <v type="int" >       84 </v>
  <v type="int" >       92 </v>
  <v type="int" >       89 </v>
  <v type="int" >       96 </v>
 </varray>
 <kpoints>
  <generation param="Gamma">
   <v type="int" name="divisions">       3        3        1 </v>
   <v name="usershift">      0.00000000       0.00000000       0.00000000 </v>
   <v name="genvec1">      0.33333333       0.00000000       0.00000000 </v>
   <v name="genvec2">      0.00000000       0.33333333       0.00000000 </v>
   <v name="genvec3">      0.00000000       0.00000000       1.00000000 </v>
   <v name="shift">      0.00000000       0.00000000       0.00000000 </v>
  </generation>
  <varray name="kpointlist" >
   <v>       0.00000000       0.00000000       0.00000000 </v>
   <v>       0.33333333       0.00000000       0.00000000 </v>
   <v>       0.00000000       0.33333333       0.00000000 </v>
   <v>       0.33333333       0.33333333       0.00000000 </v>
  </varray>
  <varray name="weights" >
   <v>       0.11111111 </v>
   <v>       0.22222222 </v>
   <v>       0.22222222 </v>
   <v>       0.44444444 </v>
  </varray>
 </kpoints>
 <parameters>
  <separator name="general" >
   <i type="string" name="SYSTEM">unknown system</i>
   <i type="logical" name="LCOMPAT"> F  </i>
  </separator>
  <separator name="electronic" >
   <i type="string" name="PREC">normal</i>
   <i name="ENMAX">    500.00000000</i>
   <i name="ENAUG">    605.39200000</i>
   <i name="EDIFF">      0.00000100</i>
   <i type="int" name="IALGO">    68</i>
   <i type="int" name="IWAVPR">    11</i>
   <i type="int" name="NBANDS">   440</i>
   <i name="NELECT">    669.00000000</i>
   <i type="int" name="TURBO">     0</i>
   <i type="int" name="IRESTART">     0</i>
   <i type="int" name="NREBOOT">     0</i>
   <i type="int" name="NMIN">     0</i>
   <i name="EREF">      0.00000000</i>
   <separator name="electronic smearing" >
    <i type="int" name="ISMEAR">     0</i>
    <i name="SIGMA">      0.05000000</i>
    <i name="KSPACING">      0.50000000</i>
    <i type="logical" name="KGAMMA"> T  </i>
   </separator>
   <separator name="electronic projectors" >
    <i type="logical" name="LREAL"> T  </i>
    <v name="ROPT">     -0.00050000     -0.00050000     -0.00050000     -0.00050000</v>
    <i type="int" name="LMAXPAW">  -100</i>
    <i type="int" name="LMAXMIX">     2</i>
    <i type="logical" name="NLSPLINE"> F  </i>
   </separator>
   <separator name="electronic startup" >
    <i type="int" name="ISTART">     0</i>
    <i type="int" name="ICHARG">     2</i>
    <i type="int" name="INIWAV">     1</i>
   </separator>
   <separator name="electronic spin" >
    <i type="int" name="ISPIN">     2</i>
    <i type="logical" name="LNONCOLLINEAR"> F  </i>
    <v name="MAGMOM">      0.60000000      0.60000000      0.60000000      0.60000000      0.60000000      0.60000000      0.60000000      0.60000000      0.60000000      0.60000000      0.60000000      0.60000000      0.60000000      0.60000000      0.60000000      0.60000000      0.60000000      0.60000000      0.60000000      0.60000000
      0.60000000      0.60000000      0.60000000      0.60000000      0.60000000      0.60000000      0.60000000      0.60000000      0.60000000      0.60000000      0.60000000      0.60000000      0.60000000      0.60000000      0.60000000      0.60000000      0.60000000      0.60000000      0.60000000      0.60000000
      0.60000000      0.60000000      0.60000000      0.60000000      0.60000000      0.60000000      0.60000000      0.60000000      0.60000000      0.60000000      0.60000000      0.60000000      0.60000000      0.60000000      0.60000000      0.60000000      0.60000000      0.60000000      0.60000000      0.60000000
      0.60000000      0.60000000      0.60000000      0.60000000      0.60000000      0.60000000      0.60000000      0.60000000      0.60000000      0.60000000      0.60000000      0.60000000      0.60000000      0.60000000      0.60000000      0.60000000      0.60000000      0.60000000      0.60000000      0.60000000
      0.60000000      0.60000000      0.60000000      0.60000000      0.60000000      0.60000000      0.60000000      0.60000000      0.60000000      0.60000000      0.60000000      0.60000000      0.60000000      0.60000000      0.60000000      0.60000000</v>
    <i name="NUPDOWN">     -1.00000000</i>
    <i type="logical" name="LSORBIT"> F  </i>
    <v name="SAXIS">      0.00000000      0.00000000      1.00000000</v>
    <i type="logical" name="LSPIRAL"> F  </i>
    <v name="QSPIRAL">      0.00000000      0.00000000      0.00000000</v>
    <i type="logical" name="LZEROZ"> F  </i>
   </separator>
   <separator name="electronic exchange-correlation" >
    <i type="logical" name="LASPH"> F  </i>
    <i type="logical" name="LMETAGGA"> F  </i>
   </separator>
   <separator name="electronic convergence" >
    <i type="int" name="NELM">    60</i>
    <i type="int" name="NELMDL">    -5</i>
    <i type="int" name="NELMIN">     4</i>
    <i name="ENINI">    500.00000000</i>
    <separator name="electronic convergence detail" >
     <i type="logical" name="LDIAG"> T  </i>
     <i type="logical" name="LSUBROT"> F  </i>
     <i name="WEIMIN">      0.00100000</i>
     <i name="EBREAK">      0.00000000</i>
     <i name="DEPER">      0.30000000</i>
     <i type="int" name="NRMM">     4</i>
     <i name="TIME">      0.40000000</i>
    </separator>
   </separator>
   <separator name="electronic mixer" >
    <i name="AMIX">      0.40000000</i>
    <i name="BMIX">      1.00000000</i>
    <i name="AMIN">      0.10000000</i>
    <i name="AMIX_MAG">      1.60000000</i>
    <i name="BMIX_MAG">      1.00000000</i>
    <separator name="electronic mixer details" >
     <i type="int" name="IMIX">     4</i>
     <i type="logical" name="MIXFIRST"> F  </i>
     <i type="int" name="MAXMIX">    60</i>
     <i name="WC">    100.00000000</i>
     <i type="int" name="INIMIX">     1</i>
     <i type="int" name="MIXPRE">     1</i>
     <i type="int" name="MREMOVE">     5</i>
    </separator>
   </separator>
   <separator name="electronic dipolcorrection" >
    <i type="logical" name="LDIPOL"> F  </i>
    <i type="logical" name="LMONO"> F  </i>
    <i type="int" name="IDIPOL">     0</i>
    <i name="EPSILON">      1.00000000</i>
    <v name="DIPOL">   -100.00000000   -100.00000000   -100.00000000</v>
    <i name="EFIELD">      0.00000000</i>
   </separator>
  </separator>
  <separator name="grids" >
   <i type="int" name="NGX">    70</i>
   <i type="int" name="NGY">    36</i>
   <i type="int" name="NGZ">   144</i>
   <i type="int" name="NGXF">   140</i>
   <i type="int" name="NGYF">    72</i>
   <i type="int" name="NGZF">   288</i>
   <i type="logical" name="ADDGRID"> F  </i>
  </separator>
  <separator name="ionic" >
   <i type="int" name="NSW">  1189</i>
   <i type="int" name="IBRION">     5</i>
   <i type="int" name="MDALGO">     0</i>
   <i type="int" name="ISIF">     2</i>
   <i name="PSTRESS">      0.00000000</i>
   <i name="EDIFFG">     -0.05000000</i>
   <i type="int" name="NFREE">     2</i>
   <i name="POTIM">      0.50000000</i>
   <i name="SMASS">     -3.00000000</i>
   <i name="SCALEE">      1.00000000</i>
  </separator>
  <separator name="ionic md" >
   <i name="TEBEG">      0.00010000</i>
   <i name="TEEND">      0.00010000</i>
   <i type="int" name="NBLOCK">     1</i>
   <i type="int" name="KBLOCK">  1189</i>
   <i type="int" name="NPACO">   256</i>
   <i name="APACO">     16.00000000</i>
  </separator>
  <separator name="symmetry" >
   <i type="int" name="ISYM">     2</i>
   <i name="SYMPREC">      0.00001000</i>
  </separator>
  <separator name="dos" >
   <i type="int" name="LORBIT">     0</i>
   <v name="RWIGS">     -1.00000000     -1.00000000     -1.00000000     -1.00000000</v>
   <i type="int" name="NEDOS">   301</i>
   <i name="EMIN">     10.00000000</i>
   <i name="EMAX">    -10.00000000</i>
   <i name="EFERMI">      0.00000000</i>
  </separator>
  <separator name="writing" >
   <i type="int" name="NWRITE">     2</i>
   <i type="logical" name="LWAVE"> F  </i>
   <i type="logical" name="LDOWNSAMPLE"> F  </i>
   <i type="logical" name="LCHARG"> F  </i>
   <i type="logical" name="LPARD"> F  </i>
   <i type="logical" name="LVTOT"> F  </i>
   <i type="logical" name="LVHAR"> T  </i>
   <i type="logical" name="LELF"> F  </i>
   <i type="logical" name="LOPTICS"> F  </i>
   <v name="STM">      0.00000000      0.00000000      0.00000000      0.00000000      0.00000000      0.00000000      0.00000000</v>
  </separator>
  <separator name="performance" >
   <i type="int" name="NPAR">    40</i>
   <i type="int" name="NSIM">     4</i>
   <i type="int" name="NBLK">    -1</i>
   <i type="logical" name="LPLANE"> T  </i>
   <i type="logical" name="LSCALAPACK"> T  </i>
   <i type="logical" name="LSCAAWARE"> F  </i>
   <i type="logical" name="LSCALU"> F  </i>
   <i type="logical" name="LASYNC"> F  </i>
   <i type="logical" name="LORBITALREAL"> F  </i>
  </separator>
  <separator name="miscellaneous" >
   <i type="int" name="IDIOT">     3</i>
   <i type="int" name="ISPECIAL">     0</i>
   <i type="logical" name="LMUSIC"> F  </i>
   <v name="POMASS">    192.22000000     16.00000000    192.22000000     16.00000000</v>
   <v name="DARWINR">      0.00000000      0.00000000      0.00000000      0.00000000</v>
   <v name="DARWINV">      1.00000000      1.00000000      1.00000000      1.00000000</v>
   <i type="logical" name="LCORR"> T  </i>
  </separator>
  <i type="logical" name="GGA_COMPAT"> T  </i>
  <i type="logical" name="LBERRY"> F  </i>
  <i type="int" name="ICORELEVEL">     0</i>
  <i type="logical" name="LDAU"> F  </i>
  <i type="int" name="I_CONSTRAINED_M">     0</i>
  <separator name="electronic exchange-correlation" >
   <i type="string" name="GGA">RP</i>
   <i type="int" name="VOSKOWN">     0</i>
   <i type="logical" name="LHFCALC"> F  </i>
   <i type="string" name="PRECFOCK"></i>
   <i type="logical" name="LSYMGRAD"> F  </i>
   <i type="logical" name="LHFONE"> F  </i>
   <i type="logical" name="LRHFCALC"> F  </i>
   <i type="logical" name="LTHOMAS"> F  </i>
   <i type="logical" name="LMODELHF"> F  </i>
   <i name="ENCUT4O">     -1.00000000</i>
   <i type="int" name="EXXOEP">     0</i>
   <i type="int" name="FOURORBIT">     0</i>
   <i name="AEXX">      0.00000000</i>
   <i name="HFALPHA">      0.00000000</i>
   <i name="MCALPHA">      0.00000000</i>
   <i name="ALDAX">      1.00000000</i>
   <i name="AGGAX">      1.00000000</i>
   <i name="ALDAC">      1.00000000</i>
   <i name="AGGAC">      1.00000000</i>
   <i type="int" name="NKREDX">     1</i>
   <i type="int" name="NKREDY">     1</i>
   <i type="int" name="NKREDZ">     1</i>
   <i type="logical" name="SHIFTRED"> F  </i>
   <i type="logical" name="ODDONLY"> F  </i>
   <i type="logical" name="EVENONLY"> F  </i>
   <i type="int" name="LMAXFOCK">     0</i>
   <i type="int" name="NMAXFOCKAE">     0</i>
   <i type="logical" name="LFOCKAEDFT"> F  </i>
   <i name="HFSCREEN">      0.00000000</i>
   <i name="HFSCREENC">      0.00000000</i>
   <i type="int" name="NBANDSGWLOW">     0</i>
  </separator>
  <separator name="vdW DFT" >
   <i type="logical" name="LUSE_VDW"> F  </i>
   <i name="Zab_VDW">     -0.84910000</i>
   <i name="PARAM1">      0.12340000</i>
   <i name="PARAM2">      1.00000000</i>
   <i name="PARAM3">      0.00000000</i>
  </separator>
  <separator name="model GW" >
   <i type="int" name="MODEL_GW">     0</i>
   <i name="MODEL_EPS0">     13.40542383</i>
   <i name="MODEL_ALPHA">      1.00000000</i>
  </separator>
  <separator name="linear response parameters" >
   <i type="logical" name="LEPSILON"> F  </i>
   <i type="logical" name="LRPA"> F  </i>
   <i type="logical" name="LNABLA"> F  </i>
   <i type="logical" name="LVEL"> F  </i>
   <i type="int" name="KINTER">     0</i>
   <i name="CSHIFT">      0.10000000</i>
   <i name="OMEGAMAX">     -1.00000000</i>
   <i name="DEG_THRESHOLD">      0.00200000</i>
   <i name="RTIME">     -0.10000000</i>
   <i name="WPLASMAI">      0.00000000</i>
   <v name="DFIELD">      0.00000000      0.00000000      0.00000000</v>
   <v name="WPLASMA">      0.00000000      0.00000000      0.00000000      0.00000000      0.00000000      0.00000000      0.00000000      0.00000000      0.00000000</v>
  </separator>
  <separator name="orbital magnetization" >
   <i type="logical" name="NUCIND"> F  </i>
   <v name="MAGPOS">      0.00000000      0.00000000      0.00000000</v>
   <i type="logical" name="LNICSALL"> T  </i>
   <i type="logical" name="ORBITALMAG"> F  </i>
   <i type="logical" name="LMAGBLOCH"> F  </i>
   <i type="logical" name="LCHIMAG"> F  </i>
   <i type="logical" name="LGAUGE"> T  </i>
   <i type="int" name="MAGATOM">     0</i>
   <v name="MAGDIPOL">      0.00000000      0.00000000      0.00000000</v>
   <v name="AVECCONST">      0.00000000      0.00000000      0.00000000</v>
  </separator>
  <separator name="response functions" >
   <i type="logical" name="LADDER"> F  </i>
   <i type="logical" name="LRPAFORCE"> F  </i>
   <i type="logical" name="LFXC"> F  </i>
   <i type="logical" name="LHARTREE"> T  </i>
   <i type="int" name="IBSE">     0</i>
   <v type="int" name="KPOINT">    -1     0     0     0</v>
   <i type="logical" name="LTCTE"> F  </i>
   <i type="logical" name="LTETE"> F  </i>
   <i type="logical" name="LTRIPLET"> F  </i>
   <i type="logical" name="LFXCEPS"> F  </i>
   <i type="logical" name="LFXHEG"> F  </i>
   <i type="int" name="NATURALO">     2</i>
   <i type="logical" name="L2ORDER"> F  </i>
   <i type="logical" name="LMP2LT"> F  </i>
   <i type="logical" name="LUSEW"> F  </i>
   <i name="ENCUTGW">     -2.00000000</i>
   <i name="ENCUTGWSOFT">     -2.00000000</i>
   <i name="ENCUTLF">     -1.00000000</i>
   <i type="int" name="LMAXMP2">    -1</i>
   <i name="SCISSOR">      0.00000000</i>
   <i type="int" name="NOMEGA">     0</i>
   <i type="int" name="NOMEGAR">     0</i>
   <i type="int" name="NBANDSGW">    -1</i>
   <i type="int" name="NBANDSO">    -1</i>
   <i type="int" name="NBANDSV">    -1</i>
   <i type="int" name="NELM">    60</i>
   <i type="int" name="NELMHF">     1</i>
   <i type="int" name="DIM">     3</i>
   <i type="int" name="ANTIRES">     0</i>
   <i name="OMEGAMAX">    -30.00000000</i>
   <i name="OMEGAMIN">    -30.00000000</i>
   <i name="OMEGATL">   -200.00000000</i>
   <i type="int" name="OMEGAGRID">   140</i>
   <i name="CSHIFT">     -0.10000000</i>
   <i type="logical" name="SELFENERGY"> F  </i>
   <i type="logical" name="LSPECTRAL"> F  </i>
   <i type="logical" name="LSPECTRALGW"> F  </i>
   <i type="logical" name="LSINGLES"> F  </i>
   <i type="logical" name="LFERMIGW"> F  </i>
   <i type="logical" name="ODDONLYGW"> F  </i>
   <i type="logical" name="EVENONLYGW"> F  </i>
   <i type="int" name="NKREDLFX">     1</i>
   <i type="int" name="NKREDLFY">     1</i>
   <i type="int" name="NKREDLFZ">     1</i>
   <i type="int" name="MAXMEM">  2800</i>
   <i type="int" name="TELESCOPE">     0</i>
   <i type="int" name="TAUPAR">     1</i>
   <i type="int" name="OMEGAPAR">    -1</i>
   <i name="LAMBDA">      1.00000000</i>
  </separator>
  <separator name="External order field" >
   <i name="OFIELD_KAPPA">      0.00000000</i>
   <v name="OFIELD_K">      0.00000000      0.00000000      0.00000000</v>
   <i name="OFIELD_Q6_NEAR">      0.00000000</i>
   <i name="OFIELD_Q6_FAR">      0.00000000</i>
   <i name="OFIELD_A">      0.00000000</i>
  </separator>
  <separator name="solvation model" >
   <i type="logical" name="LSOL"> F  </i>
  </separator>
 </parameters>
 <atominfo>
  <atoms>      96 </atoms>
  <types>       4 </types>
  <array name="atoms" >
   <dimension dim="1">ion</dimension>
   <field type="string">element</field>
   <field type="int">atomtype</field>
   <set>
    <rc><c>Ir</c><c>   1</c></rc>
    <rc><c>Ir</c><c>   1</c></rc>
    <rc><c>Ir</c><c>   1</c></rc>
    <rc><c>Ir</c><c>   1</c></rc>
    <rc><c>Ir</c><c>   1</c></rc>
    <rc><c>Ir</c><c>   1</c></rc>
    <rc><c>Ir</c><c>   1</c></rc>
    <rc><c>Ir</c><c>   1</c></rc>
    <rc><c>Ir</c><c>   1</c></rc>
    <rc><c>Ir</c><c>   1</c></rc>
    <rc><c>Ir</c><c>   1</c></rc>
    <rc><c>Ir</c><c>   1</c></rc>
    <rc><c>Ir</c><c>   1</c></rc>
    <rc><c>Ir</c><c>   1</c></rc>
    <rc><c>Ir</c><c>   1</c></rc>
    <rc><c>Ir</c><c>   1</c></rc>
    <rc><c>O </c><c>   2</c></rc>
    <rc><c>O </c><c>   2</c></rc>
    <rc><c>O </c><c>   2</c></rc>
    <rc><c>O </c><c>   2</c></rc>
    <rc><c>O </c><c>   2</c></rc>
    <rc><c>O </c><c>   2</c></rc>
    <rc><c>O </c><c>   2</c></rc>
    <rc><c>O </c><c>   2</c></rc>
    <rc><c>O </c><c>   2</c></rc>
    <rc><c>O </c><c>   2</c></rc>
    <rc><c>O </c><c>   2</c></rc>
    <rc><c>O </c><c>   2</c></rc>
    <rc><c>O </c><c>   2</c></rc>
    <rc><c>O </c><c>   2</c></rc>
    <rc><c>O </c><c>   2</c></rc>
    <rc><c>O </c><c>   2</c></rc>
    <rc><c>O </c><c>   2</c></rc>
    <rc><c>O </c><c>   2</c></rc>
    <rc><c>O </c><c>   2</c></rc>
    <rc><c>O </c><c>   2</c></rc>
    <rc><c>O </c><c>   2</c></rc>
    <rc><c>O </c><c>   2</c></rc>
    <rc><c>O </c><c>   2</c></rc>
    <rc><c>O </c><c>   2</c></rc>
    <rc><c>O </c><c>   2</c></rc>
    <rc><c>O </c><c>   2</c></rc>
    <rc><c>O </c><c>   2</c></rc>
    <rc><c>O </c><c>   2</c></rc>
    <rc><c>O </c><c>   2</c></rc>
    <rc><c>O </c><c>   2</c></rc>
    <rc><c>O </c><c>   2</c></rc>
    <rc><c>O </c><c>   2</c></rc>
    <rc><c>Ir</c><c>   3</c></rc>
    <rc><c>Ir</c><c>   3</c></rc>
    <rc><c>Ir</c><c>   3</c></rc>
    <rc><c>Ir</c><c>   3</c></rc>
    <rc><c>Ir</c><c>   3</c></rc>
    <rc><c>Ir</c><c>   3</c></rc>
    <rc><c>Ir</c><c>   3</c></rc>
    <rc><c>Ir</c><c>   3</c></rc>
    <rc><c>Ir</c><c>   3</c></rc>
    <rc><c>Ir</c><c>   3</c></rc>
    <rc><c>Ir</c><c>   3</c></rc>
    <rc><c>Ir</c><c>   3</c></rc>
    <rc><c>Ir</c><c>   3</c></rc>
    <rc><c>Ir</c><c>   3</c></rc>
    <rc><c>Ir</c><c>   3</c></rc>
    <rc><c>O </c><c>   4</c></rc>
    <rc><c>O </c><c>   4</c></rc>
    <rc><c>O </c><c>   4</c></rc>
    <rc><c>O </c><c>   4</c></rc>
    <rc><c>O </c><c>   4</c></rc>
    <rc><c>O </c><c>   4</c></rc>
    <rc><c>O </c><c>   4</c></rc>
    <rc><c>O </c><c>   4</c></rc>
    <rc><c>O </c><c>   4</c></rc>
    <rc><c>O </c><c>   4</c></rc>
    <rc><c>O </c><c>   4</c></rc>
    <rc><c>O </c><c>   4</c></rc>
    <rc><c>O </c><c>   4</c></rc>
    <rc><c>O </c><c>   4</c></rc>
    <rc><c>O </c><c>   4</c></rc>
    <rc><c>O </c><c>   4</c></rc>
    <rc><c>O </c><c>   4</c></rc>
    <rc><c>O </c><c>   4</c></rc>
    <rc><c>O </c><c>   4</c></rc>
    <rc><c>O </c><c>   4</c></rc>
    <rc><c>O </c><c>   4</c></rc>
    <rc><c>O </c><c>   4</c></rc>
    <rc><c>O </c><c>   4</c></rc>
    <rc><c>O </c><c>   4</c></rc>
    <rc><c>O </c><c>   4</c></rc>
    <rc><c>O </c><c>   4</c></rc>
    <rc><c>O </c><c>   4</c></rc>
    <rc><c>O </c><c>   4</c></rc>
    <rc><c>O </c><c>   4</c></rc>
    <rc><c>O </c><c>   4</c></rc>
    <rc><c>O </c><c>   4</c></rc>
    <rc><c>O </c><c>   4</c></rc>
    <rc><c>O </c><c>   4</c></rc>
   </set>
  </array>
  <array name="atomtypes" >
   <dimension dim="1">type</dimension>
   <field type="int">atomspertype</field>
   <field type="string">element</field>
   <field>mass</field>
   <field>valence</field>
   <field type="string">pseudopotential</field>
   <set>
    <rc><c>  16</c><c>Ir</c><c>    192.22000000</c><c>      9.00000000</c><c>  PAW_PBE Ir 06Sep2000                  </c></rc>
    <rc><c>  32</c><c>O </c><c>     16.00000000</c><c>      6.00000000</c><c>  PAW_PBE O 08Apr2002                   </c></rc>
    <rc><c>  15</c><c>Ir</c><c>    192.22000000</c><c>      9.00000000</c><c>  PAW_PBE Ir 06Sep2000                  </c></rc>
    <rc><c>  33</c><c>O </c><c>     16.00000000</c><c>      6.00000000</c><c>  PAW_PBE O 08Apr2002                   </c></rc>
   </set>
  </array>
 </atominfo>
 <structure name="initialpos" >
  <crystal>
   <varray name="basis" >
    <v>      12.80853200       0.00000000       0.00000000 </v>
    <v>       0.00000000       6.47024300       0.00000000 </v>
    <v>       0.00000000       0.00000000      25.88097200 </v>
   </varray>
   <i name="volume">   2144.86781344 </i>
   <varray name="rec_basis" >
    <v>       0.07807296       0.00000000       0.00000000 </v>
    <v>       0.00000000       0.15455370       0.00000000 </v>
    <v>       0.00000000       0.00000000       0.03863843 </v>
   </varray>
  </crystal>
  <varray name="positions" >
   <v>       0.12500000       0.50000000       0.18750000 </v>
   <v>       0.37500000       0.50000000       0.18750000 </v>
   <v>       0.12500000       0.00000000       0.06250000 </v>
   <v>       0.37500000       0.00000000       0.06250000 </v>
   <v>       0.00000000       0.50000000       0.06250000 </v>
   <v>       0.25000000       0.50000000       0.06250000 </v>
   <v>       0.00000000       0.00000000       0.18750000 </v>
   <v>       0.25000000       0.00000000       0.18750000 </v>
   <v>       0.12223911       0.50000000       0.44192341 </v>
   <v>       0.37565173       0.50000000       0.43593695 </v>
   <v>       0.12457932       0.00000000       0.31159927 </v>
   <v>       0.37534832       0.00000000       0.31203257 </v>
   <v>       0.00211083       0.50000000       0.31399451 </v>
   <v>       0.25050598       0.50000000       0.31222183 </v>
   <v>       0.99512424       0.00000000       0.43438759 </v>
   <v>       0.25008102       0.00000000       0.43462383 </v>
   <v>       0.00000000       0.50000000       0.13961000 </v>
   <v>       0.25000000       0.50000000       0.13961000 </v>
   <v>       0.00000000       0.00000000       0.01461000 </v>
   <v>       0.25000000       0.00000000       0.01461000 </v>
   <v>       0.12500000       0.80844000       0.18750000 </v>
   <v>       0.37500000       0.80844000       0.18750000 </v>
   <v>       0.12500000       0.30844000       0.06250000 </v>
   <v>       0.37500000       0.30844000       0.06250000 </v>
   <v>       0.00000000       0.50000000       0.23539000 </v>
   <v>       0.25000000       0.50000000       0.23539000 </v>
   <v>       0.00000000       0.00000000       0.11039000 </v>
   <v>       0.25000000       0.00000000       0.11039000 </v>
   <v>       0.12500000       0.19156000       0.18750000 </v>
   <v>       0.37500000       0.19156000       0.18750000 </v>
   <v>       0.12500000       0.69156000       0.06250000 </v>
   <v>       0.37500000       0.69156000       0.06250000 </v>
   <v>       0.01875385       0.50000000       0.38787139 </v>
   <v>       0.24899985       0.50000000       0.38857638 </v>
   <v>       0.99901271       0.00000000       0.26439386 </v>
   <v>       0.25023067       0.00000000       0.26417274 </v>
   <v>       0.12446926       0.81321782       0.44137557 </v>
   <v>       0.37578457       0.80970836       0.43858656 </v>
   <v>       0.12604139       0.30814038       0.31018085 </v>
   <v>       0.37536372       0.30839207       0.31254188 </v>
   <v>       0.04106860       0.50000000       0.49797027 </v>
   <v>       0.25317959       0.50000000       0.48147178 </v>
   <v>       0.99927784       0.00000000       0.35944257 </v>
   <v>       0.24971325       0.00000000       0.35928788 </v>
   <v>       0.12446926       0.18678218       0.44137557 </v>
   <v>       0.37578457       0.19029164       0.43858656 </v>
   <v>       0.12604139       0.69185962       0.31018085 </v>
   <v>       0.37536372       0.69160793       0.31254188 </v>
   <v>       0.62500000       0.50000000       0.18750000 </v>
   <v>       0.87500000       0.50000000       0.18750000 </v>
   <v>       0.62500000       0.00000000       0.06250000 </v>
   <v>       0.87500000       0.00000000       0.06250000 </v>
   <v>       0.50000000       0.50000000       0.06250000 </v>
   <v>       0.75000000       0.50000000       0.06250000 </v>
   <v>       0.50000000       0.00000000       0.18750000 </v>
   <v>       0.75000000       0.00000000       0.18750000 </v>
   <v>       0.62845147       0.50000000       0.44125706 </v>
   <v>       0.62685639       0.00000000       0.31280346 </v>
   <v>       0.87315548       0.00000000       0.31303740 </v>
   <v>       0.50001633       0.50000000       0.31215734 </v>
   <v>       0.74841449       0.50000000       0.31414261 </v>
   <v>       0.50215744       0.00000000       0.43437086 </v>
   <v>       0.75718102       0.00000000       0.44640360 </v>
   <v>       0.50000000       0.50000000       0.13961000 </v>
   <v>       0.75000000       0.50000000       0.13961000 </v>
   <v>       0.50000000       0.00000000       0.01461000 </v>
   <v>       0.75000000       0.00000000       0.01461000 </v>
   <v>       0.62500000       0.80844000       0.18750000 </v>
   <v>       0.87500000       0.80844000       0.18750000 </v>
   <v>       0.62500000       0.30844000       0.06250000 </v>
   <v>       0.87500000       0.30844000       0.06250000 </v>
   <v>       0.50000000       0.50000000       0.23539000 </v>
   <v>       0.75000000       0.50000000       0.23539000 </v>
   <v>       0.50000000       0.00000000       0.11039000 </v>
   <v>       0.75000000       0.00000000       0.11039000 </v>
   <v>       0.62500000       0.19156000       0.18750000 </v>
   <v>       0.87500000       0.19156000       0.18750000 </v>
   <v>       0.62500000       0.69156000       0.06250000 </v>
   <v>       0.87500000       0.69156000       0.06250000 </v>
   <v>       0.50176274       0.50000000       0.38857225 </v>
   <v>       0.73322494       0.50000000       0.38776839 </v>
   <v>       0.50066597       0.00000000       0.26450730 </v>
   <v>       0.75015418       0.00000000       0.26463906 </v>
   <v>       0.62618501       0.81163299       0.44055969 </v>
   <v>       0.87479380       0.81476981       0.43840388 </v>
   <v>       0.62450101       0.30773593       0.31064314 </v>
   <v>       0.87480578       0.30909666       0.31407840 </v>
   <v>       0.49807271       0.50000000       0.48156024 </v>
   <v>       0.70979847       0.50000000       0.49743554 </v>
   <v>       0.50033629       0.00000000       0.35941519 </v>
   <v>       0.74983479       0.00000000       0.36193066 </v>
   <v>       0.62618501       0.18836701       0.44055969 </v>
   <v>       0.87479380       0.18523019       0.43840388 </v>
   <v>       0.62450101       0.69226407       0.31064314 </v>
   <v>       0.87480578       0.69090334       0.31407840 </v>
   <v>       0.74981647       0.00000000       0.51484751 </v>
  </varray>
  <varray name="selective"  type="logical" >
   <v type="logical" >  F  F  F </v>
   <v type="logical" >  F  F  F </v>
   <v type="logical" >  F  F  F </v>
   <v type="logical" >  F  F  F </v>
   <v type="logical" >  F  F  F </v>
   <v type="logical" >  F  F  F </v>
   <v type="logical" >  F  F  F </v>
   <v type="logical" >  F  F  F </v>
   <v type="logical" >  F  F  F </v>
   <v type="logical" >  F  F  F </v>
   <v type="logical" >  F  F  F </v>
   <v type="logical" >  F  F  F </v>
   <v type="logical" >  F  F  F </v>
   <v type="logical" >  F  F  F </v>
   <v type="logical" >  F  F  F </v>
   <v type="logical" >  F  F  F </v>
   <v type="logical" >  F  F  F </v>
   <v type="logical" >  F  F  F </v>
   <v type="logical" >  F  F  F </v>
   <v type="logical" >  F  F  F </v>
   <v type="logical" >  F  F  F </v>
   <v type="logical" >  F  F  F </v>
   <v type="logical" >  F  F  F </v>
   <v type="logical" >  F  F  F </v>
   <v type="logical" >  F  F  F </v>
   <v type="logical" >  F  F  F </v>
   <v type="logical" >  F  F  F </v>
   <v type="logical" >  F  F  F </v>
   <v type="logical" >  F  F  F </v>
   <v type="logical" >  F  F  F </v>
   <v type="logical" >  F  F  F </v>
   <v type="logical" >  F  F  F </v>
   <v type="logical" >  F  F  F </v>
   <v type="logical" >  F  F  F </v>
   <v type="logical" >  F  F  F </v>
   <v type="logical" >  F  F  F </v>
   <v type="logical" >  F  F  F </v>
   <v type="logical" >  F  F  F </v>
   <v type="logical" >  F  F  F </v>
   <v type="logical" >  F  F  F </v>
   <v type="logical" >  F  F  F </v>
   <v type="logical" >  F  F  F </v>
   <v type="logical" >  F  F  F </v>
   <v type="logical" >  F  F  F </v>
   <v type="logical" >  F  F  F </v>
   <v type="logical" >  F  F  F </v>
   <v type="logical" >  F  F  F </v>
   <v type="logical" >  F  F  F </v>
   <v type="logical" >  F  F  F </v>
   <v type="logical" >  F  F  F </v>
   <v type="logical" >  F  F  F </v>
   <v type="logical" >  F  F  F </v>
   <v type="logical" >  F  F  F </v>
   <v type="logical" >  F  F  F </v>
   <v type="logical" >  F  F  F </v>
   <v type="logical" >  F  F  F </v>
   <v type="logical" >  F  F  F </v>
   <v type="logical" >  F  F  F </v>
   <v type="logical" >  F  F  F </v>
   <v type="logical" >  F  F  F </v>
   <v type="logical" >  F  F  F </v>
   <v type="logical" >  F  F  F </v>
   <v type="logical" >  F  F  F </v>
   <v type="logical" >  F  F  F </v>
   <v type="logical" >  F  F  F </v>
   <v type="logical" >  F  F  F </v>
   <v type="logical" >  F  F  F </v>
   <v type="logical" >  F  F  F </v>
   <v type="logical" >  F  F  F </v>
   <v type="logical" >  F  F  F </v>
   <v type="logical" >  F  F  F </v>
   <v type="logical" >  F  F  F </v>
   <v type="logical" >  F  F  F </v>
   <v type="logical" >  F  F  F </v>
   <v type="logical" >  F  F  F </v>
   <v type="logical" >  F  F  F </v>
   <v type="logical" >  F  F  F </v>
   <v type="logical" >  F  F  F </v>
   <v type="logical" >  F  F  F </v>
   <v type="logical" >  F  F  F </v>
   <v type="logical" >  F  F  F </v>
   <v type="logical" >  F  F  F </v>
   <v type="logical" >  F  F  F </v>
   <v type="logical" >  F  F  F </v>
   <v type="logical" >  F  F  F </v>
   <v type="logical" >  F  F  F </v>
   <v type="logical" >  F  F  F </v>
   <v type="logical" >  F  F  F </v>
   <v type="logical" >  F  F  F </v>
   <v type="logical" >  F  F  F </v>
   <v type="logical" >  F  F  F </v>
   <v type="logical" >  F  F  F </v>
   <v type="logical" >  F  F  F </v>
   <v type="logical" >  F  F  F </v>
   <v type="logical" >  F  F  F </v>
   <v type="logical" >  T  T  T </v>
  </varray>
  <nose>
   <v>      -3.00000000       0.00000000       0.00010000       0.00010000 </v>
  </nose>
 </structure>
 <calculation>
  <scstep>
   <time name="dav">   13.17   13.24</time>
   <time name="total">   13.31   13.38</time>
   <energy>
    <i name="alphaZ">   1694.52919351 </i>
    <i name="ewald"> 226492.63596885 </i>
    <i name="hartreedc">-271372.19462000 </i>
    <i name="XCdc">   1245.36170902 </i>
    <i name="pawpsdc">  39656.53614886 </i>
    <i name="pawaedc"> -38476.97807352 </i>
    <i name="eentropy">     -0.05399279 </i>
    <i name="bandstr">   2560.87565620 </i>
    <i name="atom">  45441.73369906 </i>
    <i name="e_fr_energy">   7242.44568919 </i>
    <i name="e_wo_entrp">   7242.49968198 </i>
    <i name="e_0_energy">   7242.47268558 </i>
   </energy>
  </scstep>
  <scstep>
   <time name="dav">   13.65   13.69</time>
   <time name="total">   13.65   13.69</time>
   <energy>
    <i name="e_fr_energy">    432.46994280 </i>
    <i name="e_wo_entrp">    432.52925674 </i>
    <i name="e_0_energy">    432.49959977 </i>
   </energy>
  </scstep>
  <scstep>
   <time name="dav">   17.11   17.16</time>
   <time name="total">   17.11   17.16</time>
   <energy>
    <i name="e_fr_energy">   -696.81719085 </i>
    <i name="e_wo_entrp">   -696.73371062 </i>
    <i name="e_0_energy">   -696.77545073 </i>
   </energy>
  </scstep>
  <scstep>
   <time name="dav">   15.42   15.46</time>
   <time name="total">   15.42   15.46</time>
   <energy>
    <i name="e_fr_energy">   -743.32177514 </i>
    <i name="e_wo_entrp">   -743.23117810 </i>
    <i name="e_0_energy">   -743.27647662 </i>
   </energy>
  </scstep>
  <scstep>
   <time name="dav">   15.65   15.69</time>
   <time name="total">   16.27   16.32</time>
   <energy>
    <i name="e_fr_energy">   -744.58038915 </i>
    <i name="e_wo_entrp">   -744.48986970 </i>
    <i name="e_0_energy">   -744.53512942 </i>
   </energy>
  </scstep>
  <scstep>
   <time name="diag">    2.64    2.65</time>
   <time name="diis">    7.35    7.37</time>
   <time name="orth">    0.58    0.58</time>
   <time name="total">   11.31   11.34</time>
   <energy>
    <i name="e_fr_energy">   -613.06474362 </i>
    <i name="e_wo_entrp">   -612.99556101 </i>
    <i name="e_0_energy">   -613.03015231 </i>
   </energy>
  </scstep>
  <scstep>
   <time name="diag">    2.62    2.63</time>
   <time name="diis">    7.37    7.39</time>
   <time name="orth">    0.58    0.58</time>
   <time name="total">   11.30   11.34</time>
   <energy>
    <i name="e_fr_energy">   -748.60263223 </i>
    <i name="e_wo_entrp">   -748.53487714 </i>
    <i name="e_0_energy">   -748.56875469 </i>
   </energy>
  </scstep>
  <scstep>
   <time name="diag">    2.62    2.63</time>
   <time name="diis">    7.35    7.37</time>
   <time name="orth">    0.58    0.59</time>
   <time name="total">   11.28   11.31</time>
   <energy>
    <i name="e_fr_energy">   -674.62443535 </i>
    <i name="e_wo_entrp">   -674.58019397 </i>
    <i name="e_0_energy">   -674.60231466 </i>
   </energy>
  </scstep>
  <scstep>
   <time name="diag">    2.62    2.63</time>
   <time name="diis">    7.40    7.42</time>
   <time name="orth">    0.58    0.59</time>
   <time name="total">   11.34   11.37</time>
   <energy>
    <i name="e_fr_energy">   -935.68000748 </i>
    <i name="e_wo_entrp">   -935.62085684 </i>
    <i name="e_0_energy">   -935.65043216 </i>
   </energy>
  </scstep>
  <scstep>
   <time name="diag">    2.62    2.63</time>
   <time name="diis">    7.53    7.55</time>
   <time name="orth">    0.60    0.60</time>
   <time name="total">   11.48   11.52</time>
   <energy>
    <i name="e_fr_energy">   -769.46589630 </i>
    <i name="e_wo_entrp">   -769.39330431 </i>
    <i name="e_0_energy">   -769.42960031 </i>
   </energy>
  </scstep>
  <scstep>
   <time name="diag">    2.62    2.62</time>
   <time name="diis">    7.35    7.36</time>
   <time name="orth">    0.58    0.59</time>
   <time name="total">   11.27   11.30</time>
   <energy>
    <i name="e_fr_energy">   -714.84664731 </i>
    <i name="e_wo_entrp">   -714.78551023 </i>
    <i name="e_0_energy">   -714.81607877 </i>
   </energy>
  </scstep>
  <scstep>
   <time name="diag">    2.61    2.62</time>
   <time name="diis">    7.36    7.38</time>
   <time name="orth">    0.58    0.59</time>
   <time name="total">   11.29   11.32</time>
   <energy>
    <i name="e_fr_energy">   -607.68113293 </i>
    <i name="e_wo_entrp">   -607.61742763 </i>
    <i name="e_0_energy">   -607.64928028 </i>
   </energy>
  </scstep>
  <scstep>
   <time name="diag">    2.62    2.62</time>
   <time name="diis">    7.34    7.36</time>
   <time name="orth">    0.58    0.59</time>
   <time name="total">   11.28   11.31</time>
   <energy>
    <i name="e_fr_energy">   -597.34845961 </i>
    <i name="e_wo_entrp">   -597.26243124 </i>
    <i name="e_0_energy">   -597.30544542 </i>
   </energy>
  </scstep>
  <scstep>
   <time name="diag">    2.63    2.64</time>
   <time name="diis">    7.36    7.38</time>
   <time name="orth">    0.58    0.59</time>
   <time name="total">   11.30   11.33</time>
   <energy>
    <i name="e_fr_energy">   -590.05038720 </i>
    <i name="e_wo_entrp">   -589.99091359 </i>
    <i name="e_0_energy">   -590.02065040 </i>
   </energy>
  </scstep>
  <scstep>
   <time name="diag">    2.61    2.62</time>
   <time name="diis">    7.34    7.35</time>
   <time name="orth">    0.58    0.59</time>
   <time name="total">   11.27   11.29</time>
   <energy>
    <i name="e_fr_energy">   -586.14310212 </i>
    <i name="e_wo_entrp">   -586.08138769 </i>
    <i name="e_0_energy">   -586.11224491 </i>
   </energy>
  </scstep>
  <scstep>
   <time name="diag">    2.62    2.63</time>
   <time name="diis">    7.35    7.37</time>
   <time name="orth">    0.59    0.59</time>
   <time name="total">   11.28   11.31</time>
   <energy>
    <i name="e_fr_energy">   -589.26841094 </i>
    <i name="e_wo_entrp">   -589.20100365 </i>
    <i name="e_0_energy">   -589.23470729 </i>
   </energy>
  </scstep>
  <scstep>
   <time name="diag">    2.62    2.62</time>
   <time name="diis">    7.34    7.36</time>
   <time name="orth">    0.58    0.59</time>
   <time name="total">   11.27   11.31</time>
   <energy>
    <i name="e_fr_energy">   -590.34234517 </i>
    <i name="e_wo_entrp">   -590.27803700 </i>
    <i name="e_0_energy">   -590.31019109 </i>
   </energy>
  </scstep>
  <scstep>
   <time name="diag">    2.62    2.63</time>
   <time name="diis">    7.36    7.38</time>
   <time name="orth">    0.58    0.59</time>
   <time name="total">   11.29   11.33</time>
   <energy>
    <i name="e_fr_energy">   -594.94898013 </i>
    <i name="e_wo_entrp">   -594.88767874 </i>
    <i name="e_0_energy">   -594.91832943 </i>
   </energy>
  </scstep>
  <scstep>
   <time name="diag">    2.62    2.63</time>
   <time name="diis">    7.33    7.35</time>
   <time name="orth">    0.59    0.59</time>
   <time name="total">   11.27   11.30</time>
   <energy>
    <i name="e_fr_energy">   -597.92049207 </i>
    <i name="e_wo_entrp">   -597.85546733 </i>
    <i name="e_0_energy">   -597.88797970 </i>
   </energy>
  </scstep>
  <scstep>
   <time name="diag">    2.62    2.63</time>
   <time name="diis">    7.34    7.36</time>
   <time name="orth">    0.58    0.59</time>
   <time name="total">   11.27   11.30</time>
   <energy>
    <i name="e_fr_energy">   -599.96679248 </i>
    <i name="e_wo_entrp">   -599.90499375 </i>
    <i name="e_0_energy">   -599.93589311 </i>
   </energy>
  </scstep>
  <scstep>
   <time name="diag">    2.62    2.63</time>
   <time name="diis">    7.33    7.35</time>
   <time name="orth">    0.58    0.59</time>
   <time name="total">   11.26   11.29</time>
   <energy>
    <i name="e_fr_energy">   -601.23042494 </i>
    <i name="e_wo_entrp">   -601.17499108 </i>
    <i name="e_0_energy">   -601.20270801 </i>
   </energy>
  </scstep>
  <scstep>
   <time name="diag">    2.63    2.64</time>
   <time name="diis">    7.34    7.35</time>
   <time name="orth">    0.58    0.59</time>
   <time name="total">   11.28   11.31</time>
   <energy>
    <i name="e_fr_energy">   -602.02324348 </i>
    <i name="e_wo_entrp">   -601.96629673 </i>
    <i name="e_0_energy">   -601.99477011 </i>
   </energy>
  </scstep>
  <scstep>
   <time name="diag">    2.62    2.63</time>
   <time name="diis">    7.36    7.37</time>
   <time name="orth">    0.58    0.59</time>
   <time name="total">   11.29   11.32</time>
   <energy>
    <i name="e_fr_energy">   -602.19483440 </i>
    <i name="e_wo_entrp">   -602.13740760 </i>
    <i name="e_0_energy">   -602.16612100 </i>
   </energy>
  </scstep>
  <scstep>
   <time name="diag">    2.63    2.64</time>
   <time name="diis">    7.34    7.36</time>
   <time name="orth">    0.58    0.59</time>
   <time name="total">   11.29   11.32</time>
   <energy>
    <i name="e_fr_energy">   -602.60620094 </i>
    <i name="e_wo_entrp">   -602.55096199 </i>
    <i name="e_0_energy">   -602.57858146 </i>
   </energy>
  </scstep>
  <scstep>
   <time name="diag">    2.62    2.62</time>
   <time name="diis">    7.35    7.37</time>
   <time name="orth">    0.58    0.59</time>
   <time name="total">   11.28   11.31</time>
   <energy>
    <i name="e_fr_energy">   -604.32887626 </i>
    <i name="e_wo_entrp">   -604.27454816 </i>
    <i name="e_0_energy">   -604.30171221 </i>
   </energy>
  </scstep>
  <scstep>
   <time name="diag">    2.62    2.63</time>
   <time name="diis">    7.34    7.36</time>
   <time name="orth">    0.58    0.59</time>
   <time name="total">   11.28   11.31</time>
   <energy>
    <i name="e_fr_energy">   -605.79791601 </i>
    <i name="e_wo_entrp">   -605.73857449 </i>
    <i name="e_0_energy">   -605.76824525 </i>
   </energy>
  </scstep>
  <scstep>
   <time name="diag">    2.62    2.62</time>
   <time name="diis">    7.34    7.36</time>
   <time name="orth">    0.59    0.59</time>
   <time name="total">   11.28   11.30</time>
   <energy>
    <i name="e_fr_energy">   -607.27998100 </i>
    <i name="e_wo_entrp">   -607.21241578 </i>
    <i name="e_0_energy">   -607.24619839 </i>
   </energy>
  </scstep>
  <scstep>
   <time name="diag">    2.61    2.62</time>
   <time name="diis">    7.31    7.33</time>
   <time name="orth">    0.58    0.59</time>
   <time name="total">   11.24   11.27</time>
   <energy>
    <i name="e_fr_energy">   -608.20335894 </i>
    <i name="e_wo_entrp">   -608.13478579 </i>
    <i name="e_0_energy">   -608.16907236 </i>
   </energy>
  </scstep>
  <scstep>
   <time name="diag">    2.61    2.62</time>
   <time name="diis">    7.32    7.34</time>
   <time name="orth">    0.58    0.59</time>
   <time name="total">   11.25   11.28</time>
   <energy>
    <i name="e_fr_energy">   -608.95700541 </i>
    <i name="e_wo_entrp">   -608.88488461 </i>
    <i name="e_0_energy">   -608.92094501 </i>
   </energy>
  </scstep>
  <scstep>
   <time name="diag">    2.63    2.63</time>
   <time name="diis">    7.31    7.33</time>
   <time name="orth">    0.58    0.59</time>
   <time name="total">   11.25   11.28</time>
   <energy>
    <i name="e_fr_energy">   -609.47104240 </i>
    <i name="e_wo_entrp">   -609.39769840 </i>
    <i name="e_0_energy">   -609.43437040 </i>
   </energy>
  </scstep>
  <scstep>
   <time name="diag">    2.62    2.62</time>
   <time name="diis">    7.34    7.36</time>
   <time name="orth">    0.58    0.59</time>
   <time name="total">   11.27   11.31</time>
   <energy>
    <i name="e_fr_energy">   -609.61622800 </i>
    <i name="e_wo_entrp">   -609.54308654 </i>
    <i name="e_0_energy">   -609.57965727 </i>
   </energy>
  </scstep>
  <scstep>
   <time name="diag">    2.61    2.62</time>
   <time name="diis">    7.32    7.34</time>
   <time name="orth">    0.58    0.59</time>
   <time name="total">   11.26   11.29</time>
   <energy>
    <i name="e_fr_energy">   -609.69067750 </i>
    <i name="e_wo_entrp">   -609.61612717 </i>
    <i name="e_0_energy">   -609.65340234 </i>
   </energy>
  </scstep>
  <scstep>
   <time name="diag">    2.61    2.62</time>
   <time name="diis">    7.31    7.33</time>
   <time name="orth">    0.58    0.59</time>
   <time name="total">   11.25   11.28</time>
   <energy>
    <i name="e_fr_energy">   -609.74616341 </i>
    <i name="e_wo_entrp">   -609.66903348 </i>
    <i name="e_0_energy">   -609.70759845 </i>
   </energy>
  </scstep>
  <scstep>
   <time name="diag">    2.61    2.62</time>
   <time name="diis">    7.38    7.40</time>
   <time name="orth">    0.59    0.59</time>
   <time name="total">   11.32   11.35</time>
   <energy>
    <i name="e_fr_energy">   -609.72991649 </i>
    <i name="e_wo_entrp">   -609.65347861 </i>
    <i name="e_0_energy">   -609.69169755 </i>
   </energy>
  </scstep>
  <scstep>
   <time name="diag">    3.08    3.09</time>
   <time name="diis">    7.32    7.34</time>
   <time name="orth">    0.59    0.59</time>
   <time name="total">   11.73   11.77</time>
   <energy>
    <i name="e_fr_energy">   -609.72890194 </i>
    <i name="e_wo_entrp">   -609.65269584 </i>
    <i name="e_0_energy">   -609.69079889 </i>
   </energy>
  </scstep>
  <scstep>
   <time name="diag">    2.61    2.62</time>
   <time name="diis">    7.33    7.35</time>
   <time name="orth">    0.58    0.59</time>
   <time name="total">   11.27   11.30</time>
   <energy>
    <i name="e_fr_energy">   -609.73359711 </i>
    <i name="e_wo_entrp">   -609.65926596 </i>
    <i name="e_0_energy">   -609.69643154 </i>
   </energy>
  </scstep>
  <scstep>
   <time name="diag">    2.61    2.62</time>
   <time name="diis">    7.32    7.34</time>
   <time name="orth">    0.58    0.59</time>
   <time name="total">   11.27   11.31</time>
   <energy>
    <i name="e_fr_energy">   -609.75225898 </i>
    <i name="e_wo_entrp">   -609.67807145 </i>
    <i name="e_0_energy">   -609.71516521 </i>
   </energy>
  </scstep>
  <scstep>
   <time name="diag">    2.61    2.61</time>
   <time name="diis">    7.33    7.35</time>
   <time name="orth">    0.59    0.59</time>
   <time name="total">   11.27   11.30</time>
   <energy>
    <i name="e_fr_energy">   -609.80063632 </i>
    <i name="e_wo_entrp">   -609.72770949 </i>
    <i name="e_0_energy">   -609.76417291 </i>
   </energy>
  </scstep>
  <scstep>
   <time name="diag">    2.61    2.62</time>
   <time name="diis">    7.33    7.35</time>
   <time name="orth">    0.58    0.59</time>
   <time name="total">   11.28   11.30</time>
   <energy>
    <i name="e_fr_energy">   -609.84221569 </i>
    <i name="e_wo_entrp">   -609.76929163 </i>
    <i name="e_0_energy">   -609.80575366 </i>
   </energy>
  </scstep>
  <scstep>
   <time name="diag">    2.61    2.62</time>
   <time name="diis">    7.33    7.35</time>
   <time name="orth">    0.59    0.59</time>
   <time name="total">   11.28   11.30</time>
   <energy>
    <i name="e_fr_energy">   -609.88025526 </i>
    <i name="e_wo_entrp">   -609.80730043 </i>
    <i name="e_0_energy">   -609.84377785 </i>
   </energy>
  </scstep>
  <scstep>
   <time name="diag">    2.62    2.63</time>
   <time name="diis">    7.35    7.37</time>
   <time name="orth">    0.58    0.59</time>
   <time name="total">   11.30   11.33</time>
   <energy>
    <i name="e_fr_energy">   -609.91797094 </i>
    <i name="e_wo_entrp">   -609.84474284 </i>
    <i name="e_0_energy">   -609.88135689 </i>
   </energy>
  </scstep>
  <scstep>
   <time name="diag">    2.62    2.62</time>
   <time name="diis">    7.35    7.37</time>
   <time name="orth">    0.58    0.59</time>
   <time name="total">   11.30   11.33</time>
   <energy>
    <i name="e_fr_energy">   -609.93827231 </i>
    <i name="e_wo_entrp">   -609.86500441 </i>
    <i name="e_0_energy">   -609.90163836 </i>
   </energy>
  </scstep>
  <scstep>
   <time name="diag">    2.62    2.62</time>
   <time name="diis">    7.35    7.37</time>
   <time name="orth">    0.58    0.59</time>
   <time name="total">   11.30   11.34</time>
   <energy>
    <i name="e_fr_energy">   -609.97439858 </i>
    <i name="e_wo_entrp">   -609.90065595 </i>
    <i name="e_0_energy">   -609.93752726 </i>
   </energy>
  </scstep>
  <scstep>
   <time name="diag">    2.63    2.64</time>
   <time name="diis">    7.36    7.38</time>
   <time name="orth">    0.58    0.59</time>
   <time name="total">   11.32   11.36</time>
   <energy>
    <i name="e_fr_energy">   -610.00036792 </i>
    <i name="e_wo_entrp">   -609.92671269 </i>
    <i name="e_0_energy">   -609.96354030 </i>
   </energy>
  </scstep>
  <scstep>
   <time name="diag">    2.62    2.62</time>
   <time name="diis">    7.35    7.37</time>
   <time name="orth">    0.60    0.60</time>
   <time name="total">   11.32   11.35</time>
   <energy>
    <i name="e_fr_energy">   -610.03929531 </i>
    <i name="e_wo_entrp">   -609.96530659 </i>
    <i name="e_0_energy">   -610.00230095 </i>
   </energy>
  </scstep>
  <scstep>
   <time name="diag">    2.62    2.62</time>
   <time name="diis">    7.35    7.37</time>
   <time name="orth">    0.58    0.59</time>
   <time name="total">   11.30   11.33</time>
   <energy>
    <i name="e_fr_energy">   -610.09906190 </i>
    <i name="e_wo_entrp">   -610.02483329 </i>
    <i name="e_0_energy">   -610.06194759 </i>
   </energy>
  </scstep>
  <scstep>
   <time name="diag">    2.62    2.63</time>
   <time name="diis">    7.33    7.35</time>
   <time name="orth">    0.58    0.59</time>
   <time name="total">   11.28   11.32</time>
   <energy>
    <i name="e_fr_energy">   -610.14062696 </i>
    <i name="e_wo_entrp">   -610.06652965 </i>
    <i name="e_0_energy">   -610.10357831 </i>
   </energy>
  </scstep>
  <scstep>
   <time name="diag">    2.62    2.63</time>
   <time name="diis">    7.36    7.38</time>
   <time name="orth">    0.58    0.59</time>
   <time name="total">   11.31   11.34</time>
   <energy>
    <i name="e_fr_energy">   -610.16637125 </i>
    <i name="e_wo_entrp">   -610.09242098 </i>
    <i name="e_0_energy">   -610.12939612 </i>
   </energy>
  </scstep>
  <scstep>
   <time name="diag">    2.62    2.62</time>
   <time name="diis">    7.33    7.35</time>
   <time name="orth">    0.59    0.59</time>
   <time name="total">   11.28   11.31</time>
   <energy>
    <i name="e_fr_energy">   -610.18458170 </i>
    <i name="e_wo_entrp">   -610.11072981 </i>
    <i name="e_0_energy">   -610.14765576 </i>
   </energy>
  </scstep>
  <scstep>
   <time name="diag">    2.62    2.63</time>
   <time name="diis">    7.35    7.38</time>
   <time name="orth">    0.58    0.58</time>
   <time name="total">   11.31   11.34</time>
   <energy>
    <i name="e_fr_energy">   -610.20359178 </i>
    <i name="e_wo_entrp">   -610.12995610 </i>
    <i name="e_0_energy">   -610.16677394 </i>
   </energy>
  </scstep>
  <scstep>
   <time name="diag">    2.63    2.63</time>
   <time name="diis">    7.32    7.34</time>
   <time name="orth">    0.58    0.59</time>
   <time name="total">   11.28   11.31</time>
   <energy>
    <i name="e_fr_energy">   -610.23458810 </i>
    <i name="e_wo_entrp">   -610.16106468 </i>
    <i name="e_0_energy">   -610.19782639 </i>
   </energy>
  </scstep>
  <scstep>
   <time name="diag">    2.62    2.62</time>
   <time name="diis">    7.34    7.36</time>
   <time name="orth">    0.58    0.59</time>
   <time name="total">   11.29   11.32</time>
   <energy>
    <i name="e_fr_energy">   -610.26285301 </i>
    <i name="e_wo_entrp">   -610.18954735 </i>
    <i name="e_0_energy">   -610.22620018 </i>
   </energy>
  </scstep>
  <scstep>
   <time name="diag">    2.61    2.62</time>
   <time name="diis">    7.39    7.41</time>
   <time name="orth">    0.58    0.59</time>
   <time name="total">   11.33   11.37</time>
   <energy>
    <i name="e_fr_energy">   -610.26735352 </i>
    <i name="e_wo_entrp">   -610.19415108 </i>
    <i name="e_0_energy">   -610.23075230 </i>
   </energy>
  </scstep>
  <scstep>
   <time name="diag">    2.61    2.62</time>
   <time name="diis">    7.37    7.39</time>
   <time name="orth">    0.58    0.59</time>
   <time name="total">   11.31   11.34</time>
   <energy>
    <i name="e_fr_energy">   -610.26748671 </i>
    <i name="e_wo_entrp">   -610.19443180 </i>
    <i name="e_0_energy">   -610.23095925 </i>
   </energy>
  </scstep>
  <scstep>
   <time name="diag">    2.61    2.62</time>
   <time name="diis">    7.34    7.36</time>
   <time name="orth">    0.58    0.59</time>
   <time name="total">   11.28   11.32</time>
   <energy>
    <i name="e_fr_energy">   -610.26738814 </i>
    <i name="e_wo_entrp">   -610.19444295 </i>
    <i name="e_0_energy">   -610.23091554 </i>
   </energy>
  </scstep>
  <scstep>
   <time name="diag">    2.62    2.62</time>
   <time name="diis">    7.33    7.35</time>
   <time name="orth">    0.58    0.58</time>
   <time name="total">   11.28   11.30</time>
   <energy>
    <i name="e_fr_energy">   -610.26646300 </i>
    <i name="e_wo_entrp">   -610.19359426 </i>
    <i name="e_0_energy">   -610.23002863 </i>
   </energy>
  </scstep>
  <scstep>
   <time name="diag">    2.61    2.62</time>
   <time name="diis">    7.34    7.36</time>
   <time name="orth">    0.58    0.59</time>
   <time name="total">   11.29   11.32</time>
   <energy>
    <i name="e_fr_energy">   -610.26702344 </i>
    <i name="e_wo_entrp">   -610.19428695 </i>
    <i name="e_0_energy">   -610.23065520 </i>
   </energy>
  </scstep>
  <scstep>
   <time name="diag">    2.62    2.63</time>
   <time name="diis">    7.35    7.36</time>
   <time name="orth">    0.59    0.59</time>
   <time name="total">   11.30   11.33</time>
   <energy>
    <i name="e_fr_energy">   -610.27138769 </i>
    <i name="e_wo_entrp">   -610.19883924 </i>
    <i name="e_0_energy">   -610.23511346 </i>
   </energy>
  </scstep>
  <scstep>
   <time name="diag">    2.63    2.63</time>
   <time name="diis">    7.27    7.29</time>
   <time name="orth">    0.58    0.59</time>
   <time name="total">   11.23   11.27</time>
   <energy>
    <i name="e_fr_energy">   -610.27464215 </i>
    <i name="e_wo_entrp">   -610.20198337 </i>
    <i name="e_0_energy">   -610.23831276 </i>
   </energy>
  </scstep>
  <scstep>
   <time name="diag">    2.61    2.62</time>
   <time name="diis">    6.83    6.85</time>
   <time name="orth">    0.58    0.59</time>
   <time name="total">   10.14   10.17</time>
   <energy>
    <i name="alphaZ">   1694.52919351 </i>
    <i name="ewald"> 226492.63596885 </i>
    <i name="hartreedc">-271526.37825333 </i>
    <i name="XCdc">   1284.89069303 </i>
    <i name="pawpsdc">  60157.05928640 </i>
    <i name="pawaedc"> -59087.01792358 </i>
    <i name="eentropy">     -0.07263736 </i>
    <i name="bandstr">  -5067.65700587 </i>
    <i name="atom">  45441.73369906 </i>
    <i name="e_fr_energy">   -610.27697930 </i>
    <i name="e_wo_entrp">   -610.20434194 </i>
    <i name="e_0_energy">   -610.24066062 </i>
   </energy>
  </scstep>
  <structure>
   <crystal>
    <varray name="basis" >
     <v>      12.80853200       0.00000000       0.00000000 </v>
     <v>       0.00000000       6.47024300       0.00000000 </v>
     <v>       0.00000000       0.00000000      25.88097200 </v>
    </varray>
    <i name="volume">   2144.86781344 </i>
    <varray name="rec_basis" >
     <v>       0.07807296       0.00000000       0.00000000 </v>
     <v>       0.00000000       0.15455370       0.00000000 </v>
     <v>       0.00000000       0.00000000       0.03863843 </v>
    </varray>
   </crystal>
   <varray name="positions" >
    <v>       0.12500000       0.50000000       0.18750000 </v>
    <v>       0.37500000       0.50000000       0.18750000 </v>
    <v>       0.12500000       0.00000000       0.06250000 </v>
    <v>       0.37500000       0.00000000       0.06250000 </v>
    <v>       0.00000000       0.50000000       0.06250000 </v>
    <v>       0.25000000       0.50000000       0.06250000 </v>
    <v>       0.00000000       0.00000000       0.18750000 </v>
    <v>       0.25000000       0.00000000       0.18750000 </v>
    <v>       0.12223911       0.50000000       0.44192341 </v>
    <v>       0.37565173       0.50000000       0.43593695 </v>
    <v>       0.12457932       0.00000000       0.31159927 </v>
    <v>       0.37534832       0.00000000       0.31203257 </v>
    <v>       0.00211083       0.50000000       0.31399451 </v>
    <v>       0.25050598       0.50000000       0.31222183 </v>
    <v>       0.99512424       0.00000000       0.43438759 </v>
    <v>       0.25008102       0.00000000       0.43462383 </v>
    <v>       0.00000000       0.50000000       0.13961000 </v>
    <v>       0.25000000       0.50000000       0.13961000 </v>
    <v>       0.00000000       0.00000000       0.01461000 </v>
    <v>       0.25000000       0.00000000       0.01461000 </v>
    <v>       0.12500000       0.80844000       0.18750000 </v>
    <v>       0.37500000       0.80844000       0.18750000 </v>
    <v>       0.12500000       0.30844000       0.06250000 </v>
    <v>       0.37500000       0.30844000       0.06250000 </v>
    <v>       0.00000000       0.50000000       0.23539000 </v>
    <v>       0.25000000       0.50000000       0.23539000 </v>
    <v>       0.00000000       0.00000000       0.11039000 </v>
    <v>       0.25000000       0.00000000       0.11039000 </v>
    <v>       0.12500000       0.19156000       0.18750000 </v>
    <v>       0.37500000       0.19156000       0.18750000 </v>
    <v>       0.12500000       0.69156000       0.06250000 </v>
    <v>       0.37500000       0.69156000       0.06250000 </v>
    <v>       0.01875385       0.50000000       0.38787139 </v>
    <v>       0.24899985       0.50000000       0.38857638 </v>
    <v>       0.99901271       0.00000000       0.26439386 </v>
    <v>       0.25023067       0.00000000       0.26417274 </v>
    <v>       0.12446926       0.81321782       0.44137557 </v>
    <v>       0.37578457       0.80970836       0.43858656 </v>
    <v>       0.12604139       0.30814038       0.31018085 </v>
    <v>       0.37536372       0.30839207       0.31254188 </v>
    <v>       0.04106860       0.50000000       0.49797027 </v>
    <v>       0.25317959       0.50000000       0.48147178 </v>
    <v>       0.99927784       0.00000000       0.35944257 </v>
    <v>       0.24971325       0.00000000       0.35928788 </v>
    <v>       0.12446926       0.18678218       0.44137557 </v>
    <v>       0.37578457       0.19029164       0.43858656 </v>
    <v>       0.12604139       0.69185962       0.31018085 </v>
    <v>       0.37536372       0.69160793       0.31254188 </v>
    <v>       0.62500000       0.50000000       0.18750000 </v>
    <v>       0.87500000       0.50000000       0.18750000 </v>
    <v>       0.62500000       0.00000000       0.06250000 </v>
    <v>       0.87500000       0.00000000       0.06250000 </v>
    <v>       0.50000000       0.50000000       0.06250000 </v>
    <v>       0.75000000       0.50000000       0.06250000 </v>
    <v>       0.50000000       0.00000000       0.18750000 </v>
    <v>       0.75000000       0.00000000       0.18750000 </v>
    <v>       0.62845147       0.50000000       0.44125706 </v>
    <v>       0.62685639       0.00000000       0.31280346 </v>
    <v>       0.87315548       0.00000000       0.31303740 </v>
    <v>       0.50001633       0.50000000       0.31215734 </v>
    <v>       0.74841449       0.50000000       0.31414261 </v>
    <v>       0.50215744       0.00000000       0.43437086 </v>
    <v>       0.75718102       0.00000000       0.44640360 </v>
    <v>       0.50000000       0.50000000       0.13961000 </v>
    <v>       0.75000000       0.50000000       0.13961000 </v>
    <v>       0.50000000       0.00000000       0.01461000 </v>
    <v>       0.75000000       0.00000000       0.01461000 </v>
    <v>       0.62500000       0.80844000       0.18750000 </v>
    <v>       0.87500000       0.80844000       0.18750000 </v>
    <v>       0.62500000       0.30844000       0.06250000 </v>
    <v>       0.87500000       0.30844000       0.06250000 </v>
    <v>       0.50000000       0.50000000       0.23539000 </v>
    <v>       0.75000000       0.50000000       0.23539000 </v>
    <v>       0.50000000       0.00000000       0.11039000 </v>
    <v>       0.75000000       0.00000000       0.11039000 </v>
    <v>       0.62500000       0.19156000       0.18750000 </v>
    <v>       0.87500000       0.19156000       0.18750000 </v>
    <v>       0.62500000       0.69156000       0.06250000 </v>
    <v>       0.87500000       0.69156000       0.06250000 </v>
    <v>       0.50176274       0.50000000       0.38857225 </v>
    <v>       0.73322494       0.50000000       0.38776839 </v>
    <v>       0.50066597       0.00000000       0.26450730 </v>
    <v>       0.75015418       0.00000000       0.26463906 </v>
    <v>       0.62618501       0.81163299       0.44055969 </v>
    <v>       0.87479380       0.81476981       0.43840388 </v>
    <v>       0.62450101       0.30773593       0.31064314 </v>
    <v>       0.87480578       0.30909666       0.31407840 </v>
    <v>       0.49807271       0.50000000       0.48156024 </v>
    <v>       0.70979847       0.50000000       0.49743554 </v>
    <v>       0.50033629       0.00000000       0.35941519 </v>
    <v>       0.74983479       0.00000000       0.36193066 </v>
    <v>       0.62618501       0.18836701       0.44055969 </v>
    <v>       0.87479380       0.18523019       0.43840388 </v>
    <v>       0.62450101       0.69226407       0.31064314 </v>
    <v>       0.87480578       0.69090334       0.31407840 </v>
    <v>       0.74981647       0.00000000       0.51484751 </v>
   </varray>
  </structure>
  <varray name="forces" >
   <v>       0.00792639      -0.00000000      -0.26251570 </v>
   <v>       0.00279112      -0.00000000      -0.31689752 </v>
   <v>      -0.02693317      -0.00000000      -0.94807454 </v>
   <v>       0.01023348      -0.00000000      -0.93124253 </v>
   <v>       0.00146655      -0.00000000       1.60076667 </v>
   <v>      -0.00901617      -0.00000000       1.66327990 </v>
   <v>      -0.03471559      -0.00000000      -0.24007592 </v>
   <v>      -0.00405493      -0.00000000      -0.42703505 </v>
   <v>       0.01140967      -0.00000000       0.00368546 </v>
   <v>      -0.00919630      -0.00000000      -0.00480401 </v>
   <v>      -0.00349005      -0.00000000       0.02346164 </v>
   <v>       0.00576742      -0.00000000      -0.02126163 </v>
   <v>      -0.01955358      -0.00000000      -0.00055259 </v>
   <v>      -0.00300646      -0.00000000      -0.00277406 </v>
   <v>      -0.02588698      -0.00000000       0.02780092 </v>
   <v>       0.03653838      -0.00000000      -0.00508119 </v>
   <v>       0.01403320      -0.00000000      -0.14213491 </v>
   <v>      -0.06044182      -0.00000000      -0.16976497 </v>
   <v>      -0.01544289      -0.00000000       0.81226911 </v>
   <v>      -0.00028647      -0.00000000       0.81943969 </v>
   <v>      -0.06692360      -0.01150390      -0.04309333 </v>
   <v>       0.06035850      -0.03486414      -0.02525497 </v>
   <v>      -0.05481055      -0.04570931      -0.68778753 </v>
   <v>       0.05056715      -0.03949583      -0.69445542 </v>
   <v>      -0.28606845      -0.00000000       0.64229456 </v>
   <v>       0.09877874      -0.00000000       0.13250490 </v>
   <v>      -0.00043477      -0.00000000       0.19622034 </v>
   <v>       0.01258333      -0.00000000       0.24087571 </v>
   <v>      -0.06692360       0.01150390      -0.04309333 </v>
   <v>       0.06035850       0.03486414      -0.02525497 </v>
   <v>      -0.05481055       0.04570931      -0.68778753 </v>
   <v>       0.05056715       0.03949583      -0.69445542 </v>
   <v>       0.02967226      -0.00000000       0.02146385 </v>
   <v>      -0.02688126      -0.00000000      -0.02345206 </v>
   <v>       0.00499297      -0.00000000      -0.00769926 </v>
   <v>       0.02486241      -0.00000000       0.01438303 </v>
   <v>      -0.00384477      -0.00328814       0.00816204 </v>
   <v>      -0.00696696      -0.00733121       0.00028956 </v>
   <v>       0.00361229       0.01028341       0.02073001 </v>
   <v>       0.00138819      -0.01047015       0.00100568 </v>
   <v>       0.01857243      -0.00000000       0.01589917 </v>
   <v>       0.01920450      -0.00000000       0.01375575 </v>
   <v>      -0.00889723      -0.00000000      -0.00198498 </v>
   <v>       0.01691134      -0.00000000      -0.01838260 </v>
   <v>      -0.00384477       0.00328814       0.00816204 </v>
   <v>      -0.00696696       0.00733121       0.00028956 </v>
   <v>       0.00361229      -0.01028341       0.02073001 </v>
   <v>       0.00138819       0.01047015       0.00100568 </v>
   <v>      -0.02106820      -0.00000000      -0.26385864 </v>
   <v>       0.00149110      -0.00000000      -0.27921967 </v>
   <v>      -0.01726621      -0.00000000      -0.94812936 </v>
   <v>       0.01469447      -0.00000000      -0.93402022 </v>
   <v>      -0.00778406      -0.00000000       1.62784282 </v>
   <v>       0.00163907      -0.00000000       1.61733306 </v>
   <v>       0.01148904      -0.00000000      -0.23205810 </v>
   <v>      -0.00866679      -0.00000000      -0.25349579 </v>
   <v>      -0.00589917      -0.00000000      -0.00222355 </v>
   <v>       0.01402160      -0.00000000       0.00478571 </v>
   <v>       0.00782956      -0.00000000       0.02099344 </v>
   <v>       0.02576046      -0.00000000       0.02906589 </v>
   <v>       0.01305333      -0.00000000       0.00684223 </v>
   <v>      -0.02233182      -0.00000000      -0.00111389 </v>
   <v>       0.03009159      -0.00000000       0.02170173 </v>
   <v>       0.05854179      -0.00000000      -0.17234272 </v>
   <v>      -0.00649017      -0.00000000      -0.13489654 </v>
   <v>      -0.00103866      -0.00000000       0.81810131 </v>
   <v>       0.00026026      -0.00000000       0.81199056 </v>
   <v>      -0.05826568      -0.03128941      -0.05747149 </v>
   <v>       0.04956009      -0.02225078      -0.02872449 </v>
   <v>      -0.05922516      -0.05824931      -0.68145833 </v>
   <v>       0.05051133      -0.04988581      -0.68832743 </v>
   <v>      -0.07868339      -0.00000000       0.07397689 </v>
   <v>       0.24828467      -0.00000000       0.67602665 </v>
   <v>      -0.00937929      -0.00000000       0.18881563 </v>
   <v>       0.00352543      -0.00000000       0.26004045 </v>
   <v>      -0.05826568       0.03128941      -0.05747149 </v>
   <v>       0.04956009       0.02225078      -0.02872449 </v>
   <v>      -0.05922516       0.05824931      -0.68145833 </v>
   <v>       0.05051133       0.04988581      -0.68832743 </v>
   <v>       0.03203887      -0.00000000      -0.01281325 </v>
   <v>       0.01137806      -0.00000000       0.01211909 </v>
   <v>       0.00752447      -0.00000000      -0.00432295 </v>
   <v>      -0.01513304      -0.00000000      -0.02133666 </v>
   <v>       0.01784597      -0.01543772       0.01456283 </v>
   <v>       0.01731969      -0.00438713       0.01712524 </v>
   <v>      -0.02358148       0.00597645       0.01607644 </v>
   <v>      -0.00277768       0.01910044       0.01900962 </v>
   <v>      -0.01713705      -0.00000000       0.01464207 </v>
   <v>       0.01403718      -0.00000000       0.01692792 </v>
   <v>      -0.00309878      -0.00000000      -0.01295568 </v>
   <v>      -0.00543939      -0.00000000       0.02058676 </v>
   <v>       0.01784597       0.01543772       0.01456283 </v>
   <v>       0.01731969       0.00438713       0.01712524 </v>
   <v>      -0.02358148      -0.00597645       0.01607644 </v>
   <v>      -0.00277768      -0.01910044       0.01900962 </v>
   <v>      -0.00721768      -0.00000000      -0.03414920 </v>
  </varray>
  <varray name="stress" >
   <v>     -13.42781061       0.00000000       0.03949269 </v>
   <v>       0.00000000      -3.44211292       0.00000000 </v>
   <v>       0.03949278       0.00000000      -3.65072690 </v>
  </varray>
  <energy>
   <i name="e_fr_energy">   -610.27697930 </i>
   <i name="e_wo_entrp">   -610.24066062 </i>
   <i name="e_0_energy">     -0.07263736 </i>
  </energy>
  <kpoints>
   <generation param="Gamma">
    <v type="int" name="divisions">       3        3        1 </v>
    <v name="usershift">      0.00000000       0.00000000       0.00000000 </v>
    <v name="genvec1">      0.33333333       0.00000000       0.00000000 </v>
    <v name="genvec2">      0.00000000       0.33333333       0.00000000 </v>
    <v name="genvec3">      0.00000000       0.00000000       1.00000000 </v>
    <v name="shift">      0.00000000       0.00000000       0.00000000 </v>
   </generation>
   <varray name="kpointlist" >
    <v>       0.00000000       0.00000000       0.00000000 </v>
    <v>       0.33333333       0.00000000       0.00000000 </v>
    <v>       0.00000000       0.33333333       0.00000000 </v>
    <v>       0.33333333       0.33333333       0.00000000 </v>
   </varray>
   <varray name="weights" >
    <v>       0.11111111 </v>
    <v>       0.22222222 </v>
    <v>       0.22222222 </v>
    <v>       0.44444444 </v>
   </varray>
  </kpoints>
  <time name="totalsc">  708.29  710.34</time>
 </calculation>
 <calculation>
  <scstep>
   <time name="dav">   13.92   13.96</time>
   <time name="total">   14.67   14.71</time>
   <energy>
    <i name="alphaZ">   1694.52919351 </i>
    <i name="ewald"> 226492.04042201 </i>
    <i name="hartreedc">-271526.00669449 </i>
    <i name="XCdc">   1284.89085460 </i>
[...]
       <r>   -11.1566     0.0000    65.0000 </r>
       <r>   -11.0500     0.0000    65.0000 </r>
       <r>   -10.9433     0.0000    65.0000 </r>
       <r>   -10.8367     0.0000    65.0000 </r>
       <r>   -10.7300     0.0000    65.0000 </r>
       <r>   -10.6234     0.0000    65.0000 </r>
       <r>   -10.5167     0.0000    65.0000 </r>
       <r>   -10.4101     0.0000    65.0000 </r>
       <r>   -10.3034     0.0000    65.0000 </r>
       <r>   -10.1968     0.0000    65.0000 </r>
       <r>   -10.0901     0.0000    65.0000 </r>
       <r>    -9.9835     0.0000    65.0000 </r>
       <r>    -9.8768     0.0000    65.0000 </r>
       <r>    -9.7702     0.0000    65.0000 </r>
       <r>    -9.6635     0.0091    65.0010 </r>
       <r>    -9.5569     1.2947    65.1391 </r>
       <r>    -9.4502     5.0820    65.6811 </r>
       <r>    -9.3435     2.8932    65.9896 </r>
       <r>    -9.2369     6.3247    66.6642 </r>
       <r>    -9.1302    16.5546    68.4298 </r>
       <r>    -9.0236     5.5183    69.0183 </r>
       <r>    -8.9169    10.0012    70.0850 </r>
       <r>    -8.8103     9.0141    71.0463 </r>
       <r>    -8.7036    13.5474    72.4912 </r>
       <r>    -8.5970    17.2379    74.3297 </r>
       <r>    -8.4903    18.1264    76.2629 </r>
       <r>    -8.3837    21.1689    78.5206 </r>
       <r>    -8.2770    32.2543    81.9606 </r>
       <r>    -8.1704    30.1677    85.1781 </r>
       <r>    -8.0637    36.6713    89.0892 </r>
       <r>    -7.9571    38.0384    93.1461 </r>
       <r>    -7.8504    54.2343    98.9303 </r>
       <r>    -7.7438    60.4207   105.3744 </r>
       <r>    -7.6371    43.9559   110.0624 </r>
       <r>    -7.5304    37.9441   114.1092 </r>
       <r>    -7.4238    28.6634   117.1663 </r>
       <r>    -7.3171    28.3815   120.1932 </r>
       <r>    -7.2105    22.1008   122.5503 </r>
       <r>    -7.1038    29.7550   125.7238 </r>
       <r>    -6.9972    23.1003   128.1875 </r>
       <r>    -6.8905    26.1332   130.9747 </r>
       <r>    -6.7839    26.1242   133.7609 </r>
       <r>    -6.6772    21.0198   136.0027 </r>
       <r>    -6.5706    18.1575   137.9393 </r>
       <r>    -6.4639    18.6455   139.9279 </r>
       <r>    -6.3573    28.9598   143.0165 </r>
       <r>    -6.2506    27.1833   145.9157 </r>
       <r>    -6.1440    30.8321   149.2040 </r>
       <r>    -6.0373    32.3120   152.6502 </r>
       <r>    -5.9307    31.6355   156.0242 </r>
       <r>    -5.8240    38.2807   160.1069 </r>
       <r>    -5.7174    40.4717   164.4233 </r>
       <r>    -5.6107    44.3393   169.1522 </r>
       <r>    -5.5040    39.4236   173.3569 </r>
       <r>    -5.3974    35.5053   177.1436 </r>
       <r>    -5.2907    38.3063   181.2291 </r>
       <r>    -5.1841    42.2961   185.7401 </r>
       <r>    -5.0774    37.7297   189.7641 </r>
       <r>    -4.9708    35.6552   193.5668 </r>
       <r>    -4.8641    36.2118   197.4289 </r>
       <r>    -4.7575    34.8992   201.1510 </r>
       <r>    -4.6508    42.6921   205.7042 </r>
       <r>    -4.5442    27.0153   208.5854 </r>
       <r>    -4.4375    28.2175   211.5949 </r>
       <r>    -4.3309    26.7991   214.4531 </r>
       <r>    -4.2242    30.2633   217.6808 </r>
       <r>    -4.1176    25.0900   220.3567 </r>
       <r>    -4.0109    26.6624   223.2003 </r>
       <r>    -3.9043    31.3405   226.5429 </r>
       <r>    -3.7976    25.4327   229.2553 </r>
       <r>    -3.6910    29.4817   232.3996 </r>
       <r>    -3.5843    27.4021   235.3221 </r>
       <r>    -3.4776    21.9810   237.6665 </r>
       <r>    -3.3710    21.6479   239.9753 </r>
       <r>    -3.2643    25.3978   242.6840 </r>
       <r>    -3.1577    35.5315   246.4735 </r>
       <r>    -3.0510    36.0047   250.3135 </r>
       <r>    -2.9444    23.5819   252.8286 </r>
       <r>    -2.8377    23.2333   255.3065 </r>
       <r>    -2.7311    25.9255   258.0715 </r>
       <r>    -2.6244    15.8841   259.7656 </r>
       <r>    -2.5178    15.7254   261.4427 </r>
       <r>    -2.4111    16.1200   263.1620 </r>
       <r>    -2.3045    25.7784   265.9113 </r>
       <r>    -2.1978    31.3814   269.2582 </r>
       <r>    -2.0912    50.4785   274.6419 </r>
       <r>    -1.9845    54.7803   280.4844 </r>
       <r>    -1.8779    44.6413   285.2455 </r>
       <r>    -1.7712    44.2744   289.9675 </r>
       <r>    -1.6646    46.2116   294.8961 </r>
       <r>    -1.5579    36.9563   298.8375 </r>
       <r>    -1.4512    37.4686   302.8337 </r>
       <r>    -1.3446    38.6719   306.9581 </r>
       <r>    -1.2379    26.0233   309.7336 </r>
       <r>    -1.1313    24.4404   312.3402 </r>
       <r>    -1.0246    24.8751   314.9932 </r>
       <r>    -0.9180    31.1849   318.3192 </r>
       <r>    -0.8113    24.1852   320.8986 </r>
       <r>    -0.7047    24.2520   323.4851 </r>
       <r>    -0.5980    28.9331   326.5709 </r>
       <r>    -0.4914    22.5689   328.9780 </r>
       <r>    -0.3847    24.9408   331.6380 </r>
       <r>    -0.2781    26.2318   334.4357 </r>
       <r>    -0.1714    34.7838   338.1454 </r>
       <r>    -0.0648    35.8597   341.9700 </r>
       <r>     0.0419    30.1165   345.1820 </r>
       <r>     0.1485    29.7642   348.3564 </r>
       <r>     0.2552    32.1586   351.7862 </r>
       <r>     0.3619    34.8452   355.5025 </r>
       <r>     0.4685    17.3210   357.3499 </r>
       <r>     0.5752    10.2068   358.4385 </r>
       <r>     0.6818    10.6303   359.5722 </r>
       <r>     0.7885    12.1461   360.8676 </r>
       <r>     0.8951     4.5157   361.3492 </r>
       <r>     1.0018     3.1303   361.6831 </r>
       <r>     1.1084    13.4265   363.1151 </r>
       <r>     1.2151    16.6087   364.8864 </r>
       <r>     1.3217     9.8868   365.9409 </r>
       <r>     1.4284     7.1435   366.7027 </r>
       <r>     1.5350    12.0742   367.9905 </r>
       <r>     1.6417    12.4389   369.3171 </r>
       <r>     1.7483    10.5599   370.4434 </r>
       <r>     1.8550    16.7497   372.2298 </r>
       <r>     1.9616    13.6970   373.6906 </r>
       <r>     2.0683    18.1504   375.6264 </r>
       <r>     2.1749    22.4961   378.0257 </r>
       <r>     2.2816    20.2622   380.1867 </r>
       <r>     2.3883    20.1957   382.3406 </r>
       <r>     2.4949    13.2161   383.7501 </r>
       <r>     2.6016    16.6490   385.5258 </r>
       <r>     2.7082    22.1834   387.8917 </r>
       <r>     2.8149    16.1013   389.6090 </r>
       <r>     2.9215    15.7305   391.2867 </r>
       <r>     3.0282    15.9810   392.9911 </r>
       <r>     3.1348    19.0463   395.0224 </r>
       <r>     3.2415    23.1847   397.4951 </r>
       <r>     3.3481    22.6788   399.9139 </r>
       <r>     3.4548    22.5299   402.3168 </r>
       <r>     3.5614    23.7578   404.8506 </r>
       <r>     3.6681    24.0852   407.4193 </r>
       <r>     3.7747    23.7897   409.9566 </r>
       <r>     3.8814    15.2160   411.5794 </r>
       <r>     3.9880    12.6109   412.9244 </r>
       <r>     4.0947     9.2405   413.9099 </r>
       <r>     4.2013     2.3339   414.1588 </r>
       <r>     4.3080     7.4636   414.9548 </r>
       <r>     4.4147     0.7011   415.0296 </r>
       <r>     4.5213     3.8649   415.4418 </r>
       <r>     4.6280     6.3227   416.1162 </r>
       <r>     4.7346     3.7763   416.5189 </r>
       <r>     4.8413     8.2268   417.3963 </r>
       <r>     4.9479     4.6666   417.8940 </r>
       <r>     5.0546     1.2285   418.0250 </r>
       <r>     5.1612     3.6789   418.4174 </r>
       <r>     5.2679     4.7664   418.9257 </r>
       <r>     5.3745     3.7149   419.3220 </r>
       <r>     5.4812     4.7343   419.8269 </r>
       <r>     5.5878     4.6984   420.3280 </r>
       <r>     5.6945     2.6370   420.6092 </r>
       <r>     5.8011     6.4223   421.2942 </r>
       <r>     5.9078     5.0906   421.8371 </r>
       <r>     6.0144     7.0154   422.5853 </r>
       <r>     6.1211     6.5614   423.2851 </r>
       <r>     6.2277     8.4182   424.1829 </r>
       <r>     6.3344    10.0223   425.2518 </r>
       <r>     6.4411    12.4447   426.5791 </r>
       <r>     6.5477     4.5908   427.0687 </r>
       <r>     6.6544    11.7103   428.3177 </r>
       <r>     6.7610     9.2070   429.2996 </r>
       <r>     6.8677    10.4865   430.4180 </r>
       <r>     6.9743     6.1861   431.0778 </r>
       <r>     7.0810     9.7524   432.1179 </r>
       <r>     7.1876    12.0827   433.4066 </r>
       <r>     7.2943    11.5145   434.6346 </r>
       <r>     7.4009    11.9030   435.9041 </r>
       <r>     7.5076    14.2884   437.4280 </r>
       <r>     7.6142     7.9289   438.2736 </r>
       <r>     7.7209     3.8845   438.6879 </r>
       <r>     7.8275     2.6145   438.9668 </r>
       <r>     7.9342     6.8376   439.6960 </r>
       <r>     8.0408     2.7917   439.9938 </r>
       <r>     8.1475     0.0585   440.0000 </r>
       <r>     8.2542     0.0000   440.0000 </r>
       <r>     8.3608     0.0000   440.0000 </r>
       <r>     8.4675     0.0000   440.0000 </r>
       <r>     8.5741     0.0000   440.0000 </r>
       <r>     8.6808     0.0000   440.0000 </r>
       <r>     8.7874     0.0000   440.0000 </r>
       <r>     8.8941     0.0000   440.0000 </r>
       <r>     9.0007     0.0000   440.0000 </r>
       <r>     9.1074     0.0000   440.0000 </r>
       <r>     9.2140     0.0000   440.0000 </r>
       <r>     9.3207     0.0000   440.0000 </r>
       <r>     9.4273     0.0000   440.0000 </r>
      </set>
     </set>
    </array>
   </total>
  </dos>
 </calculation>
 <structure name="finalpos" >
  <crystal>
   <varray name="basis" >
    <v>      12.80853200       0.00000000       0.00000000 </v>
    <v>       0.00000000       6.47024300       0.00000000 </v>
    <v>       0.00000000       0.00000000      25.88097200 </v>
   </varray>
   <i name="volume">   2144.86781344 </i>
   <varray name="rec_basis" >
    <v>       0.07807296       0.00000000       0.00000000 </v>
    <v>       0.00000000       0.15455370       0.00000000 </v>
    <v>       0.00000000       0.00000000       0.03863843 </v>
   </varray>
  </crystal>
  <varray name="positions" >
   <v>       0.12500000       0.50000000       0.18750000 </v>
   <v>       0.37500000       0.50000000       0.18750000 </v>
   <v>       0.12500000       0.00000000       0.06250000 </v>
   <v>       0.37500000       0.00000000       0.06250000 </v>
   <v>       0.00000000       0.50000000       0.06250000 </v>
   <v>       0.25000000       0.50000000       0.06250000 </v>
   <v>       0.00000000       0.00000000       0.18750000 </v>
   <v>       0.25000000       0.00000000       0.18750000 </v>
   <v>       0.12223911       0.50000000       0.44192341 </v>
   <v>       0.37565173       0.50000000       0.43593695 </v>
   <v>       0.12457932       0.00000000       0.31159927 </v>
   <v>       0.37534832       0.00000000       0.31203257 </v>
   <v>       0.00211083       0.50000000       0.31399451 </v>
   <v>       0.25050598       0.50000000       0.31222183 </v>
   <v>       0.99512424       0.00000000       0.43438759 </v>
   <v>       0.25008102       0.00000000       0.43462383 </v>
   <v>       0.00000000       0.50000000       0.13961000 </v>
   <v>       0.25000000       0.50000000       0.13961000 </v>
   <v>       0.00000000       0.00000000       0.01461000 </v>
   <v>       0.25000000       0.00000000       0.01461000 </v>
   <v>       0.12500000       0.80844000       0.18750000 </v>
   <v>       0.37500000       0.80844000       0.18750000 </v>
   <v>       0.12500000       0.30844000       0.06250000 </v>
   <v>       0.37500000       0.30844000       0.06250000 </v>
   <v>       0.00000000       0.50000000       0.23539000 </v>
   <v>       0.25000000       0.50000000       0.23539000 </v>
   <v>       0.00000000       0.00000000       0.11039000 </v>
   <v>       0.25000000       0.00000000       0.11039000 </v>
   <v>       0.12500000       0.19156000       0.18750000 </v>
   <v>       0.37500000       0.19156000       0.18750000 </v>
   <v>       0.12500000       0.69156000       0.06250000 </v>
   <v>       0.37500000       0.69156000       0.06250000 </v>
   <v>       0.01875385       0.50000000       0.38787139 </v>
   <v>       0.24899985       0.50000000       0.38857638 </v>
   <v>       0.99901271       0.00000000       0.26439386 </v>
   <v>       0.25023067       0.00000000       0.26417274 </v>
   <v>       0.12446926       0.81321782       0.44137557 </v>
   <v>       0.37578457       0.80970836       0.43858656 </v>
   <v>       0.12604139       0.30814038       0.31018085 </v>
   <v>       0.37536372       0.30839207       0.31254188 </v>
   <v>       0.04106860       0.50000000       0.49797027 </v>
   <v>       0.25317959       0.50000000       0.48147178 </v>
   <v>       0.99927784       0.00000000       0.35944257 </v>
   <v>       0.24971325       0.00000000       0.35928788 </v>
   <v>       0.12446926       0.18678218       0.44137557 </v>
   <v>       0.37578457       0.19029164       0.43858656 </v>
   <v>       0.12604139       0.69185962       0.31018085 </v>
   <v>       0.37536372       0.69160793       0.31254188 </v>
   <v>       0.62500000       0.50000000       0.18750000 </v>
   <v>       0.87500000       0.50000000       0.18750000 </v>
   <v>       0.62500000       0.00000000       0.06250000 </v>
   <v>       0.87500000       0.00000000       0.06250000 </v>
   <v>       0.50000000       0.50000000       0.06250000 </v>
   <v>       0.75000000       0.50000000       0.06250000 </v>
   <v>       0.50000000       0.00000000       0.18750000 </v>
   <v>       0.75000000       0.00000000       0.18750000 </v>
   <v>       0.62845147       0.50000000       0.44125706 </v>
   <v>       0.62685639       0.00000000       0.31280346 </v>
   <v>       0.87315548       0.00000000       0.31303740 </v>
   <v>       0.50001633       0.50000000       0.31215734 </v>
   <v>       0.74841449       0.50000000       0.31414261 </v>
   <v>       0.50215744       0.00000000       0.43437086 </v>
   <v>       0.75718102       0.00000000       0.44640360 </v>
   <v>       0.50000000       0.50000000       0.13961000 </v>
   <v>       0.75000000       0.50000000       0.13961000 </v>
   <v>       0.50000000       0.00000000       0.01461000 </v>
   <v>       0.75000000       0.00000000       0.01461000 </v>
   <v>       0.62500000       0.80844000       0.18750000 </v>
   <v>       0.87500000       0.80844000       0.18750000 </v>
   <v>       0.62500000       0.30844000       0.06250000 </v>
   <v>       0.87500000       0.30844000       0.06250000 </v>
   <v>       0.50000000       0.50000000       0.23539000 </v>
   <v>       0.75000000       0.50000000       0.23539000 </v>
   <v>       0.50000000       0.00000000       0.11039000 </v>
   <v>       0.75000000       0.00000000       0.11039000 </v>
   <v>       0.62500000       0.19156000       0.18750000 </v>
   <v>       0.87500000       0.19156000       0.18750000 </v>
   <v>       0.62500000       0.69156000       0.06250000 </v>
   <v>       0.87500000       0.69156000       0.06250000 </v>
   <v>       0.50176274       0.50000000       0.38857225 </v>
   <v>       0.73322494       0.50000000       0.38776839 </v>
   <v>       0.50066597       0.00000000       0.26450730 </v>
   <v>       0.75015418       0.00000000       0.26463906 </v>
   <v>       0.62618501       0.81163299       0.44055969 </v>
   <v>       0.87479380       0.81476981       0.43840388 </v>
   <v>       0.62450101       0.30773593       0.31064314 </v>
   <v>       0.87480578       0.30909666       0.31407840 </v>
   <v>       0.49807271       0.50000000       0.48156024 </v>
   <v>       0.70979847       0.50000000       0.49743554 </v>
   <v>       0.50033629       0.00000000       0.35941519 </v>
   <v>       0.74983479       0.00000000       0.36193066 </v>
   <v>       0.62618501       0.18836701       0.44055969 </v>
   <v>       0.87479380       0.18523019       0.43840388 </v>
   <v>       0.62450101       0.69226407       0.31064314 </v>
   <v>       0.87480578       0.69090334       0.31407840 </v>
   <v>       0.74981647       0.00000000       0.51426793 </v>
  </varray>
  <varray name="selective"  type="logical" >
   <v type="logical" >  F  F  F </v>
   <v type="logical" >  F  F  F </v>
   <v type="logical" >  F  F  F </v>
   <v type="logical" >  F  F  F </v>
   <v type="logical" >  F  F  F </v>
   <v type="logical" >  F  F  F </v>
   <v type="logical" >  F  F  F </v>
   <v type="logical" >  F  F  F </v>
   <v type="logical" >  F  F  F </v>
   <v type="logical" >  F  F  F </v>
   <v type="logical" >  F  F  F </v>
   <v type="logical" >  F  F  F </v>
   <v type="logical" >  F  F  F </v>
   <v type="logical" >  F  F  F </v>
   <v type="logical" >  F  F  F </v>
   <v type="logical" >  F  F  F </v>
   <v type="logical" >  F  F  F </v>
   <v type="logical" >  F  F  F </v>
   <v type="logical" >  F  F  F </v>
   <v type="logical" >  F  F  F </v>
   <v type="logical" >  F  F  F </v>
   <v type="logical" >  F  F  F </v>
   <v type="logical" >  F  F  F </v>
   <v type="logical" >  F  F  F </v>
   <v type="logical" >  F  F  F </v>
   <v type="logical" >  F  F  F </v>
   <v type="logical" >  F  F  F </v>
   <v type="logical" >  F  F  F </v>
   <v type="logical" >  F  F  F </v>
   <v type="logical" >  F  F  F </v>
   <v type="logical" >  F  F  F </v>
   <v type="logical" >  F  F  F </v>
   <v type="logical" >  F  F  F </v>
   <v type="logical" >  F  F  F </v>
   <v type="logical" >  F  F  F </v>
   <v type="logical" >  F  F  F </v>
   <v type="logical" >  F  F  F </v>
   <v type="logical" >  F  F  F </v>
   <v type="logical" >  F  F  F </v>
   <v type="logical" >  F  F  F </v>
   <v type="logical" >  F  F  F </v>
   <v type="logical" >  F  F  F </v>
   <v type="logical" >  F  F  F </v>
   <v type="logical" >  F  F  F </v>
   <v type="logical" >  F  F  F </v>
   <v type="logical" >  F  F  F </v>
   <v type="logical" >  F  F  F </v>
   <v type="logical" >  F  F  F </v>
   <v type="logical" >  F  F  F </v>
   <v type="logical" >  F  F  F </v>
   <v type="logical" >  F  F  F </v>
   <v type="logical" >  F  F  F </v>
   <v type="logical" >  F  F  F </v>
   <v type="logical" >  F  F  F </v>
   <v type="logical" >  F  F  F </v>
   <v type="logical" >  F  F  F </v>
   <v type="logical" >  F  F  F </v>
   <v type="logical" >  F  F  F </v>
   <v type="logical" >  F  F  F </v>
   <v type="logical" >  F  F  F </v>
   <v type="logical" >  F  F  F </v>
   <v type="logical" >  F  F  F </v>
   <v type="logical" >  F  F  F </v>
   <v type="logical" >  F  F  F </v>
   <v type="logical" >  F  F  F </v>
   <v type="logical" >  F  F  F </v>
   <v type="logical" >  F  F  F </v>
   <v type="logical" >  F  F  F </v>
   <v type="logical" >  F  F  F </v>
   <v type="logical" >  F  F  F </v>
   <v type="logical" >  F  F  F </v>
   <v type="logical" >  F  F  F </v>
   <v type="logical" >  F  F  F </v>
   <v type="logical" >  F  F  F </v>
   <v type="logical" >  F  F  F </v>
   <v type="logical" >  F  F  F </v>
   <v type="logical" >  F  F  F </v>
   <v type="logical" >  F  F  F </v>
   <v type="logical" >  F  F  F </v>
   <v type="logical" >  F  F  F </v>
   <v type="logical" >  F  F  F </v>
   <v type="logical" >  F  F  F </v>
   <v type="logical" >  F  F  F </v>
   <v type="logical" >  F  F  F </v>
   <v type="logical" >  F  F  F </v>
   <v type="logical" >  F  F  F </v>
   <v type="logical" >  F  F  F </v>
   <v type="logical" >  F  F  F </v>
   <v type="logical" >  F  F  F </v>
   <v type="logical" >  F  F  F </v>
   <v type="logical" >  F  F  F </v>
   <v type="logical" >  F  F  F </v>
   <v type="logical" >  F  F  F </v>
   <v type="logical" >  F  F  F </v>
   <v type="logical" >  F  F  F </v>
   <v type="logical" >  T  T  T </v>
  </varray>
  <nose>
   <v>      -3.00000000       0.00000000       0.00010000       0.00010000 </v>
  </nose>
 </structure>
</modeling>
