<?xml version="1.0" encoding="ISO-8859-1"?>
<modeling>
 <generator>
  <i name="program" type="string">vasp </i>
  <i name="version" type="string">5.4.4.18Apr17-6-g9f103f2a35  </i>
  <i name="subversion" type="string">(build Feb 25 2019 10:51:38) complex            parallel </i>
  <i name="platform" type="string">LinuxIFC </i>
  <i name="date" type="string">2023 03 13 </i>
  <i name="time" type="string">14:38:19 </i>
 </generator>
 <incar>
  <i type="string" name="PREC">normal</i>
  <i type="string" name="ALGO"> Fast</i>
  <i type="int" name="ISPIN">     2</i>
  <i type="int" name="ICHARG">     2</i>
  <i type="int" name="NELM">    60</i>
  <i type="int" name="NELMIN">     4</i>
  <i type="int" name="IBRION">     2</i>
  <i name="EDIFF">      0.00001000</i>
  <i name="EDIFFG">     -0.05000000</i>
  <i type="int" name="NSW">   500</i>
  <i type="int" name="ISIF">     2</i>
  <i name="ENCUT">    500.00000000</i>
  <v name="MAGMOM">      0.60000000      0.60000000      0.60000000      0.60000000      0.60000000      0.60000000      0.60000000      0.60000000      0.60000000      0.60000000      0.60000000      0.60000000      0.60000000      0.60000000      0.60000000      0.60000000      0.60000000      0.60000000      0.60000000      0.60000000
      0.60000000      0.60000000      0.60000000      0.60000000      0.60000000      0.60000000      0.60000000      0.60000000      0.60000000      0.60000000      0.60000000      0.60000000      0.60000000      0.60000000      0.60000000      0.60000000      0.60000000      0.60000000      0.60000000      0.60000000
      0.60000000      0.60000000      0.60000000      0.60000000      0.60000000      0.60000000      0.60000000      0.60000000      0.60000000      0.60000000      0.60000000      0.60000000      0.60000000      0.60000000      0.60000000      0.60000000      0.60000000      0.60000000      0.60000000      0.60000000
      0.60000000      0.60000000      0.60000000      0.60000000      0.60000000      0.60000000      0.60000000      0.60000000      0.60000000      0.60000000      0.60000000      0.60000000      0.60000000      0.60000000      0.60000000      0.60000000      0.60000000      0.60000000      0.60000000      0.60000000
      0.60000000      0.60000000      0.60000000      0.60000000      0.60000000      0.60000000      0.60000000      0.60000000      0.60000000      0.60000000      0.60000000      0.60000000      0.60000000      0.60000000      0.60000000</v>
  <i type="string" name="LREAL"> Auto</i>
  <i type="int" name="ISMEAR">     0</i>
  <i name="SIGMA">      0.05000000</i>
  <i type="logical" name="LWAVE"> F  </i>
  <i type="logical" name="LCHARG"> F  </i>
  <v type="int" name="KPOINT_BSE">    -1     0     0     0</v>
  <i type="int" name="NELM">    60</i>
  <i type="string" name="GGA"> Rp</i>
  <i type="logical" name="LDIPOL"> T  </i>
  <i type="int" name="IDIPOL">     3</i>
  <v name="DIPOL">      0.37555500      0.26665008      0.25114130</v>
 </incar>
 <structure name="primitive_cell" >
  <crystal>
   <varray name="basis" >
    <v>      12.80853200       0.00000000       0.00000000 </v>
    <v>       0.00000000       6.47024300       0.00000000 </v>
    <v>       0.00000000       0.00000000      25.88097200 </v>
   </varray>
   <i name="volume">   2144.86781344 </i>
   <varray name="rec_basis" >
    <v>       0.07807296       0.00000000       0.00000000 </v>
    <v>       0.00000000       0.15455370       0.00000000 </v>
    <v>       0.00000000       0.00000000       0.03863843 </v>
   </varray>
  </crystal>
  <varray name="positions" >
   <v>       0.12500000      -0.50000000       0.18750000 </v>
   <v>       0.12500000      -0.19156000       0.18750000 </v>
   <v>       0.12500000       0.19156000       0.18750000 </v>
   <v>       0.00000000      -0.50000000       0.13961000 </v>
   <v>       0.25000000      -0.50000000       0.13961000 </v>
   <v>       0.00000000      -0.50000000       0.23539000 </v>
   <v>       0.25000000      -0.50000000       0.23539000 </v>
   <v>       0.37500000      -0.50000000       0.18750000 </v>
   <v>      -0.12500000      -0.50000000       0.18750000 </v>
   <v>       0.12500000       0.30844000       0.06250000 </v>
   <v>       0.12500000      -0.30844000       0.06250000 </v>
   <v>       0.12482499       0.30834415       0.31282927 </v>
   <v>       0.12482499      -0.30834415       0.31282927 </v>
   <v>       0.00000000      -0.50000000       0.06250000 </v>
   <v>       0.25000000      -0.50000000       0.06250000 </v>
   <v>       0.00000000       0.00000000       0.18750000 </v>
   <v>       0.25000000       0.00000000       0.18750000 </v>
   <v>       0.24999695      -0.50000000       0.31304919 </v>
   <v>      -0.00000014      -0.50000000       0.31308780 </v>
   <v>       0.37500000      -0.19156000       0.18750000 </v>
   <v>       0.37500000       0.19156000       0.18750000 </v>
   <v>      -0.12500000      -0.19156000       0.18750000 </v>
   <v>      -0.12500000       0.19156000       0.18750000 </v>
   <v>       0.25000199       0.00000000       0.26416404 </v>
   <v>      -0.00000823       0.00000000       0.26417105 </v>
   <v>       0.00000000       0.00000000       0.11039000 </v>
   <v>       0.25000000       0.00000000       0.11039000 </v>
   <v>       0.12499516       0.00000000       0.31211760 </v>
   <v>       0.12500000       0.00000000       0.06250000 </v>
   <v>       0.37500000       0.30844000       0.06250000 </v>
   <v>       0.37500000      -0.30844000       0.06250000 </v>
   <v>      -0.12500000       0.30844000       0.06250000 </v>
   <v>      -0.12500000      -0.30844000       0.06250000 </v>
   <v>      -0.12482269       0.30834886       0.31283868 </v>
   <v>      -0.12482269      -0.30834886       0.31283868 </v>
   <v>       0.37516860      -0.30836300       0.31281841 </v>
   <v>       0.37516860       0.30836300       0.31281841 </v>
   <v>      -0.50000000      -0.50000000       0.13961000 </v>
   <v>      -0.25000000      -0.50000000       0.13961000 </v>
   <v>      -0.50000000      -0.50000000       0.23539000 </v>
   <v>      -0.25000000      -0.50000000       0.23539000 </v>
   <v>       0.24999151      -0.50000000       0.39007305 </v>
   <v>       0.00000328      -0.50000000       0.39015128 </v>
   <v>      -0.12499002       0.00000000       0.31211709 </v>
   <v>       0.37499951       0.00000000       0.31211853 </v>
   <v>       0.37500000       0.00000000       0.06250000 </v>
   <v>      -0.12500000       0.00000000       0.06250000 </v>
   <v>      -0.00002986       0.00000000       0.35957356 </v>
   <v>       0.24998244       0.00000000       0.35960527 </v>
   <v>       0.00000000       0.00000000       0.01461000 </v>
   <v>       0.25000000       0.00000000       0.01461000 </v>
   <v>      -0.50000000      -0.50000000       0.06250000 </v>
   <v>      -0.25000000      -0.50000000       0.06250000 </v>
   <v>      -0.50000000       0.00000000       0.18750000 </v>
   <v>      -0.25000000       0.00000000       0.18750000 </v>
   <v>      -0.24999278      -0.50000000       0.31304687 </v>
   <v>      -0.49999167      -0.50000000       0.31308939 </v>
   <v>      -0.25000230       0.00000000       0.26417021 </v>
   <v>      -0.49999342       0.00000000       0.26418039 </v>
   <v>      -0.50000000       0.00000000       0.11039000 </v>
   <v>      -0.25000000       0.00000000       0.11039000 </v>
   <v>      -0.37500000      -0.50000000       0.18750000 </v>
   <v>       0.12498476      -0.50000000       0.43896991 </v>
   <v>      -0.37500000      -0.19156000       0.18750000 </v>
   <v>      -0.37500000       0.19156000       0.18750000 </v>
   <v>       0.12509087      -0.19008998       0.44063705 </v>
   <v>       0.12509087       0.19008998       0.44063705 </v>
   <v>      -0.24999003      -0.50000000       0.39008087 </v>
   <v>       0.49999772      -0.50000000       0.39015215 </v>
   <v>       0.37500385      -0.50000000       0.43897212 </v>
   <v>      -0.37500000       0.30844000       0.06250000 </v>
   <v>      -0.37500000      -0.30844000       0.06250000 </v>
   <v>      -0.37516768       0.30835024       0.31284081 </v>
   <v>      -0.37516768      -0.30835024       0.31284081 </v>
   <v>      -0.49997061       0.00000000       0.35957277 </v>
   <v>      -0.25003204       0.00000000       0.35966710 </v>
   <v>      -0.50000000       0.00000000       0.01461000 </v>
   <v>      -0.25000000       0.00000000       0.01461000 </v>
   <v>       0.00001260       0.00000000       0.43516652 </v>
   <v>       0.24999832       0.00000000       0.43522899 </v>
   <v>       0.37493084      -0.19011773       0.44063407 </v>
   <v>       0.37493084       0.19011773       0.44063407 </v>
   <v>      -0.12507957      -0.19010840       0.44062326 </v>
   <v>      -0.12507957       0.19010840       0.44062326 </v>
   <v>       0.00005479      -0.50000000       0.48495206 </v>
   <v>       0.24999337      -0.50000000       0.48494745 </v>
   <v>      -0.37499993       0.00000000       0.31211933 </v>
   <v>      -0.37500000       0.00000000       0.06250000 </v>
   <v>      -0.49999994       0.00000000       0.43517729 </v>
   <v>      -0.24998417       0.00000000       0.43523195 </v>
   <v>       0.49995016      -0.50000000       0.48495143 </v>
   <v>      -0.24999565      -0.50000000       0.48495703 </v>
   <v>      -0.37500533      -0.50000000       0.43897083 </v>
   <v>      -0.37492861      -0.19011207       0.44062207 </v>
   <v>      -0.37492861       0.19011207       0.44062207 </v>
  </varray>
 </structure>
 <varray name="primitive_index" >
  <v type="int" >        1 </v>
  <v type="int" >       21 </v>
  <v type="int" >       29 </v>
  <v type="int" >       17 </v>
  <v type="int" >       18 </v>
  <v type="int" >       25 </v>
  <v type="int" >       26 </v>
  <v type="int" >        2 </v>
  <v type="int" >       50 </v>
  <v type="int" >       23 </v>
  <v type="int" >       31 </v>
  <v type="int" >       39 </v>
  <v type="int" >       47 </v>
  <v type="int" >        5 </v>
  <v type="int" >        6 </v>
  <v type="int" >        7 </v>
  <v type="int" >        8 </v>
  <v type="int" >       14 </v>
  <v type="int" >       13 </v>
  <v type="int" >       22 </v>
  <v type="int" >       30 </v>
  <v type="int" >       69 </v>
  <v type="int" >       77 </v>
  <v type="int" >       36 </v>
  <v type="int" >       35 </v>
  <v type="int" >       27 </v>
  <v type="int" >       28 </v>
  <v type="int" >       11 </v>
  <v type="int" >        3 </v>
  <v type="int" >       24 </v>
  <v type="int" >       32 </v>
  <v type="int" >       71 </v>
  <v type="int" >       79 </v>
  <v type="int" >       87 </v>
  <v type="int" >       95 </v>
  <v type="int" >       48 </v>
  <v type="int" >       40 </v>
  <v type="int" >       64 </v>
  <v type="int" >       65 </v>
  <v type="int" >       72 </v>
  <v type="int" >       73 </v>
  <v type="int" >       34 </v>
  <v type="int" >       33 </v>
  <v type="int" >       59 </v>
  <v type="int" >       12 </v>
  <v type="int" >        4 </v>
  <v type="int" >       52 </v>
  <v type="int" >       43 </v>
  <v type="int" >       44 </v>
  <v type="int" >       19 </v>
  <v type="int" >       20 </v>
  <v type="int" >       53 </v>
  <v type="int" >       54 </v>
  <v type="int" >       55 </v>
  <v type="int" >       56 </v>
  <v type="int" >       61 </v>
  <v type="int" >       60 </v>
  <v type="int" >       83 </v>
  <v type="int" >       82 </v>
  <v type="int" >       74 </v>
  <v type="int" >       75 </v>
  <v type="int" >       49 </v>
  <v type="int" >        9 </v>
  <v type="int" >       68 </v>
  <v type="int" >       76 </v>
  <v type="int" >       37 </v>
  <v type="int" >       45 </v>
  <v type="int" >       81 </v>
  <v type="int" >       80 </v>
  <v type="int" >       10 </v>
  <v type="int" >       70 </v>
  <v type="int" >       78 </v>
  <v type="int" >       86 </v>
  <v type="int" >       94 </v>
  <v type="int" >       90 </v>
  <v type="int" >       91 </v>
  <v type="int" >       66 </v>
  <v type="int" >       67 </v>
  <v type="int" >       15 </v>
  <v type="int" >       16 </v>
  <v type="int" >       38 </v>
  <v type="int" >       46 </v>
  <v type="int" >       85 </v>
  <v type="int" >       93 </v>
  <v type="int" >       41 </v>
  <v type="int" >       42 </v>
  <v type="int" >       58 </v>
  <v type="int" >       51 </v>
  <v type="int" >       62 </v>
  <v type="int" >       63 </v>
  <v type="int" >       88 </v>
  <v type="int" >       89 </v>
  <v type="int" >       57 </v>
  <v type="int" >       84 </v>
  <v type="int" >       92 </v>
 </varray>
 <kpoints>
  <generation param="Gamma">
   <v type="int" name="divisions">       3        3        1 </v>
   <v name="usershift">      0.00000000       0.00000000       0.00000000 </v>
   <v name="genvec1">      0.33333333       0.00000000       0.00000000 </v>
   <v name="genvec2">      0.00000000       0.33333333       0.00000000 </v>
   <v name="genvec3">      0.00000000       0.00000000       1.00000000 </v>
   <v name="shift">      0.00000000       0.00000000       0.00000000 </v>
  </generation>
  <varray name="kpointlist" >
   <v>       0.00000000       0.00000000       0.00000000 </v>
   <v>       0.33333333       0.00000000       0.00000000 </v>
   <v>       0.00000000       0.33333333       0.00000000 </v>
   <v>       0.33333333       0.33333333       0.00000000 </v>
  </varray>
  <varray name="weights" >
   <v>       0.11111111 </v>
   <v>       0.22222222 </v>
   <v>       0.22222222 </v>
   <v>       0.44444444 </v>
  </varray>
 </kpoints>
 <parameters>
  <separator name="general" >
   <i type="string" name="SYSTEM">unknown system</i>
   <i type="logical" name="LCOMPAT"> F  </i>
  </separator>
  <separator name="electronic" >
   <i type="string" name="PREC">normal</i>
   <i name="ENMAX">    500.00000000</i>
   <i name="ENAUG">    605.39200000</i>
   <i name="EDIFF">      0.00001000</i>
   <i type="int" name="IALGO">    68</i>
   <i type="int" name="IWAVPR">    11</i>
   <i type="int" name="NBANDS">   428</i>
   <i name="NELECT">    663.00000000</i>
   <i type="int" name="TURBO">     0</i>
   <i type="int" name="IRESTART">     0</i>
   <i type="int" name="NREBOOT">     0</i>
   <i type="int" name="NMIN">     0</i>
   <i name="EREF">      0.00000000</i>
   <separator name="electronic smearing" >
    <i type="int" name="ISMEAR">     0</i>
    <i name="SIGMA">      0.05000000</i>
    <i name="KSPACING">      0.50000000</i>
    <i type="logical" name="KGAMMA"> T  </i>
   </separator>
   <separator name="electronic projectors" >
    <i type="logical" name="LREAL"> T  </i>
    <v name="ROPT">     -0.00050000     -0.00050000     -0.00050000     -0.00050000</v>
    <i type="int" name="LMAXPAW">  -100</i>
    <i type="int" name="LMAXMIX">     2</i>
    <i type="logical" name="NLSPLINE"> F  </i>
   </separator>
   <separator name="electronic startup" >
    <i type="int" name="ISTART">     0</i>
    <i type="int" name="ICHARG">     2</i>
    <i type="int" name="INIWAV">     1</i>
   </separator>
   <separator name="electronic spin" >
    <i type="int" name="ISPIN">     2</i>
    <i type="logical" name="LNONCOLLINEAR"> F  </i>
    <v name="MAGMOM">      0.60000000      0.60000000      0.60000000      0.60000000      0.60000000      0.60000000      0.60000000      0.60000000      0.60000000      0.60000000      0.60000000      0.60000000      0.60000000      0.60000000      0.60000000      0.60000000      0.60000000      0.60000000      0.60000000      0.60000000
      0.60000000      0.60000000      0.60000000      0.60000000      0.60000000      0.60000000      0.60000000      0.60000000      0.60000000      0.60000000      0.60000000      0.60000000      0.60000000      0.60000000      0.60000000      0.60000000      0.60000000      0.60000000      0.60000000      0.60000000
      0.60000000      0.60000000      0.60000000      0.60000000      0.60000000      0.60000000      0.60000000      0.60000000      0.60000000      0.60000000      0.60000000      0.60000000      0.60000000      0.60000000      0.60000000      0.60000000      0.60000000      0.60000000      0.60000000      0.60000000
      0.60000000      0.60000000      0.60000000      0.60000000      0.60000000      0.60000000      0.60000000      0.60000000      0.60000000      0.60000000      0.60000000      0.60000000      0.60000000      0.60000000      0.60000000      0.60000000      0.60000000      0.60000000      0.60000000      0.60000000
      0.60000000      0.60000000      0.60000000      0.60000000      0.60000000      0.60000000      0.60000000      0.60000000      0.60000000      0.60000000      0.60000000      0.60000000      0.60000000      0.60000000      0.60000000</v>
    <i name="NUPDOWN">     -1.00000000</i>
    <i type="logical" name="LSORBIT"> F  </i>
    <v name="SAXIS">      0.00000000      0.00000000      1.00000000</v>
    <i type="logical" name="LSPIRAL"> F  </i>
    <v name="QSPIRAL">      0.00000000      0.00000000      0.00000000</v>
    <i type="logical" name="LZEROZ"> F  </i>
   </separator>
   <separator name="electronic exchange-correlation" >
    <i type="logical" name="LASPH"> F  </i>
    <i type="logical" name="LMETAGGA"> F  </i>
   </separator>
   <separator name="electronic convergence" >
    <i type="int" name="NELM">    60</i>
    <i type="int" name="NELMDL">    -5</i>
    <i type="int" name="NELMIN">     4</i>
    <i name="ENINI">    500.00000000</i>
    <separator name="electronic convergence detail" >
     <i type="logical" name="LDIAG"> T  </i>
     <i type="logical" name="LSUBROT"> F  </i>
     <i name="WEIMIN">      0.00100000</i>
     <i name="EBREAK">      0.00000001</i>
     <i name="DEPER">      0.30000000</i>
     <i type="int" name="NRMM">     4</i>
     <i name="TIME">      0.40000000</i>
    </separator>
   </separator>
   <separator name="electronic mixer" >
    <i name="AMIX">      0.40000000</i>
    <i name="BMIX">      1.00000000</i>
    <i name="AMIN">      0.10000000</i>
    <i name="AMIX_MAG">      1.60000000</i>
    <i name="BMIX_MAG">      1.00000000</i>
    <separator name="electronic mixer details" >
     <i type="int" name="IMIX">     4</i>
     <i type="logical" name="MIXFIRST"> F  </i>
     <i type="int" name="MAXMIX">   -45</i>
     <i name="WC">    100.00000000</i>
     <i type="int" name="INIMIX">     1</i>
     <i type="int" name="MIXPRE">     1</i>
     <i type="int" name="MREMOVE">     5</i>
    </separator>
   </separator>
   <separator name="electronic dipolcorrection" >
    <i type="logical" name="LDIPOL"> T  </i>
    <i type="logical" name="LMONO"> F  </i>
    <i type="int" name="IDIPOL">     3</i>
    <i name="EPSILON">      1.00000000</i>
    <v name="DIPOL">      0.37555500      0.26665008      0.25114130</v>
    <i name="EFIELD">      0.00000000</i>
   </separator>
  </separator>
  <separator name="grids" >
   <i type="int" name="NGX">    70</i>
   <i type="int" name="NGY">    36</i>
   <i type="int" name="NGZ">   144</i>
   <i type="int" name="NGXF">   140</i>
   <i type="int" name="NGYF">    72</i>
   <i type="int" name="NGZF">   288</i>
   <i type="logical" name="ADDGRID"> F  </i>
  </separator>
  <separator name="ionic" >
   <i type="int" name="NSW">   500</i>
   <i type="int" name="IBRION">     2</i>
   <i type="int" name="MDALGO">     0</i>
   <i type="int" name="ISIF">     2</i>
   <i name="PSTRESS">      0.00000000</i>
   <i name="EDIFFG">     -0.05000000</i>
   <i type="int" name="NFREE">     1</i>
   <i name="POTIM">      0.50000000</i>
   <i name="SMASS">     -3.00000000</i>
   <i name="SCALEE">      1.00000000</i>
  </separator>
  <separator name="ionic md" >
   <i name="TEBEG">      0.00010000</i>
   <i name="TEEND">      0.00010000</i>
   <i type="int" name="NBLOCK">     1</i>
   <i type="int" name="KBLOCK">   500</i>
   <i type="int" name="NPACO">   256</i>
   <i name="APACO">     16.00000000</i>
  </separator>
  <separator name="symmetry" >
   <i type="int" name="ISYM">     2</i>
   <i name="SYMPREC">      0.00001000</i>
  </separator>
  <separator name="dos" >
   <i type="int" name="LORBIT">     0</i>
   <v name="RWIGS">     -1.00000000     -1.00000000     -1.00000000     -1.00000000</v>
   <i type="int" name="NEDOS">   301</i>
   <i name="EMIN">     10.00000000</i>
   <i name="EMAX">    -10.00000000</i>
   <i name="EFERMI">      0.00000000</i>
  </separator>
  <separator name="writing" >
   <i type="int" name="NWRITE">     2</i>
   <i type="logical" name="LWAVE"> F  </i>
   <i type="logical" name="LDOWNSAMPLE"> F  </i>
   <i type="logical" name="LCHARG"> F  </i>
   <i type="logical" name="LPARD"> F  </i>
   <i type="logical" name="LVTOT"> F  </i>
   <i type="logical" name="LVHAR"> F  </i>
   <i type="logical" name="LELF"> F  </i>
   <i type="logical" name="LOPTICS"> F  </i>
   <v name="STM">      0.00000000      0.00000000      0.00000000      0.00000000      0.00000000      0.00000000      0.00000000</v>
  </separator>
  <separator name="performance" >
   <i type="int" name="NPAR">     4</i>
   <i type="int" name="NSIM">     4</i>
   <i type="int" name="NBLK">    -1</i>
   <i type="logical" name="LPLANE"> T  </i>
   <i type="logical" name="LSCALAPACK"> T  </i>
   <i type="logical" name="LSCAAWARE"> F  </i>
   <i type="logical" name="LSCALU"> F  </i>
   <i type="logical" name="LASYNC"> F  </i>
   <i type="logical" name="LORBITALREAL"> F  </i>
  </separator>
  <separator name="miscellaneous" >
   <i type="int" name="IDIOT">     3</i>
   <i type="int" name="ISPECIAL">     0</i>
   <i type="logical" name="LMUSIC"> F  </i>
   <v name="POMASS">    192.22000000     16.00000000    192.22000000     16.00000000</v>
   <v name="DARWINR">      0.00000000      0.00000000      0.00000000      0.00000000</v>
   <v name="DARWINV">      1.00000000      1.00000000      1.00000000      1.00000000</v>
   <i type="logical" name="LCORR"> T  </i>
  </separator>
  <i type="logical" name="GGA_COMPAT"> T  </i>
  <i type="logical" name="LBERRY"> F  </i>
  <i type="int" name="ICORELEVEL">     0</i>
  <i type="logical" name="LDAU"> F  </i>
  <i type="int" name="I_CONSTRAINED_M">     0</i>
  <separator name="electronic exchange-correlation" >
   <i type="string" name="GGA">RP</i>
   <i type="int" name="VOSKOWN">     0</i>
   <i type="logical" name="LHFCALC"> F  </i>
   <i type="string" name="PRECFOCK"></i>
   <i type="logical" name="LSYMGRAD"> F  </i>
   <i type="logical" name="LHFONE"> F  </i>
   <i type="logical" name="LRHFCALC"> F  </i>
   <i type="logical" name="LTHOMAS"> F  </i>
   <i type="logical" name="LMODELHF"> F  </i>
   <i name="ENCUT4O">     -1.00000000</i>
   <i type="int" name="EXXOEP">     0</i>
   <i type="int" name="FOURORBIT">     0</i>
   <i name="AEXX">      0.00000000</i>
   <i name="HFALPHA">      0.00000000</i>
   <i name="MCALPHA">      0.00000000</i>
   <i name="ALDAX">      1.00000000</i>
   <i name="AGGAX">      1.00000000</i>
   <i name="ALDAC">      1.00000000</i>
   <i name="AGGAC">      1.00000000</i>
   <i type="int" name="NKREDX">     1</i>
   <i type="int" name="NKREDY">     1</i>
   <i type="int" name="NKREDZ">     1</i>
   <i type="logical" name="SHIFTRED"> F  </i>
   <i type="logical" name="ODDONLY"> F  </i>
   <i type="logical" name="EVENONLY"> F  </i>
   <i type="int" name="LMAXFOCK">     0</i>
   <i type="int" name="NMAXFOCKAE">     0</i>
   <i type="logical" name="LFOCKAEDFT"> F  </i>
   <i name="HFSCREEN">      0.00000000</i>
   <i name="HFSCREENC">      0.00000000</i>
   <i type="int" name="NBANDSGWLOW">     0</i>
  </separator>
  <separator name="vdW DFT" >
   <i type="logical" name="LUSE_VDW"> F  </i>
   <i name="Zab_VDW">     -0.84910000</i>
   <i name="PARAM1">      0.12340000</i>
   <i name="PARAM2">      1.00000000</i>
   <i name="PARAM3">      0.00000000</i>
  </separator>
  <separator name="model GW" >
   <i type="int" name="MODEL_GW">     0</i>
   <i name="MODEL_EPS0">     13.54653356</i>
   <i name="MODEL_ALPHA">      1.00000000</i>
  </separator>
  <separator name="linear response parameters" >
   <i type="logical" name="LEPSILON"> F  </i>
   <i type="logical" name="LRPA"> F  </i>
   <i type="logical" name="LNABLA"> F  </i>
   <i type="logical" name="LVEL"> F  </i>
   <i type="int" name="KINTER">     0</i>
   <i name="CSHIFT">      0.10000000</i>
   <i name="OMEGAMAX">     -1.00000000</i>
   <i name="DEG_THRESHOLD">      0.00200000</i>
   <i name="RTIME">     -0.10000000</i>
   <i name="WPLASMAI">      0.00000000</i>
   <v name="DFIELD">      0.00000000      0.00000000      0.00000000</v>
   <v name="WPLASMA">      0.00000000      0.00000000      0.00000000      0.00000000      0.00000000      0.00000000      0.00000000      0.00000000      0.00000000</v>
  </separator>
  <separator name="orbital magnetization" >
   <i type="logical" name="NUCIND"> F  </i>
   <v name="MAGPOS">      0.00000000      0.00000000      0.00000000</v>
   <i type="logical" name="LNICSALL"> T  </i>
   <i type="logical" name="ORBITALMAG"> F  </i>
   <i type="logical" name="LMAGBLOCH"> F  </i>
   <i type="logical" name="LCHIMAG"> F  </i>
   <i type="logical" name="LGAUGE"> T  </i>
   <i type="int" name="MAGATOM">     0</i>
   <v name="MAGDIPOL">      0.00000000      0.00000000      0.00000000</v>
   <v name="AVECCONST">      0.00000000      0.00000000      0.00000000</v>
  </separator>
  <separator name="response functions" >
   <i type="logical" name="LADDER"> F  </i>
   <i type="logical" name="LRPAFORCE"> F  </i>
   <i type="logical" name="LFXC"> F  </i>
   <i type="logical" name="LHARTREE"> T  </i>
   <i type="int" name="IBSE">     0</i>
   <v type="int" name="KPOINT">    -1     0     0     0</v>
   <i type="logical" name="LTCTE"> F  </i>
   <i type="logical" name="LTETE"> F  </i>
   <i type="logical" name="LTRIPLET"> F  </i>
   <i type="logical" name="LFXCEPS"> F  </i>
   <i type="logical" name="LFXHEG"> F  </i>
   <i type="int" name="NATURALO">     2</i>
   <i type="logical" name="L2ORDER"> F  </i>
   <i type="logical" name="LMP2LT"> F  </i>
   <i type="logical" name="LUSEW"> F  </i>
   <i name="ENCUTGW">     -2.00000000</i>
   <i name="ENCUTGWSOFT">     -2.00000000</i>
   <i name="ENCUTLF">     -1.00000000</i>
   <i type="int" name="LMAXMP2">    -1</i>
   <i name="SCISSOR">      0.00000000</i>
   <i type="int" name="NOMEGA">     0</i>
   <i type="int" name="NOMEGAR">     0</i>
   <i type="int" name="NBANDSGW">    -1</i>
   <i type="int" name="NBANDSO">    -1</i>
   <i type="int" name="NBANDSV">    -1</i>
   <i type="int" name="NELM">    60</i>
   <i type="int" name="NELMHF">     1</i>
   <i type="int" name="DIM">     3</i>
   <i type="int" name="ANTIRES">     0</i>
   <i name="OMEGAMAX">    -30.00000000</i>
   <i name="OMEGAMIN">    -30.00000000</i>
   <i name="OMEGATL">   -200.00000000</i>
   <i type="int" name="OMEGAGRID">   140</i>
   <i name="CSHIFT">     -0.10000000</i>
   <i type="logical" name="SELFENERGY"> F  </i>
   <i type="logical" name="LSPECTRAL"> F  </i>
   <i type="logical" name="LSPECTRALGW"> F  </i>
   <i type="logical" name="LSINGLES"> F  </i>
   <i type="logical" name="LFERMIGW"> F  </i>
   <i type="logical" name="ODDONLYGW"> F  </i>
   <i type="logical" name="EVENONLYGW"> F  </i>
   <i type="int" name="NKREDLFX">     1</i>
   <i type="int" name="NKREDLFY">     1</i>
   <i type="int" name="NKREDLFZ">     1</i>
   <i type="int" name="MAXMEM">  2800</i>
   <i type="int" name="TELESCOPE">     0</i>
   <i type="int" name="TAUPAR">     1</i>
   <i type="int" name="OMEGAPAR">    -1</i>
   <i name="LAMBDA">      1.00000000</i>
  </separator>
  <separator name="External order field" >
   <i name="OFIELD_KAPPA">      0.00000000</i>
   <v name="OFIELD_K">      0.00000000      0.00000000      0.00000000</v>
   <i name="OFIELD_Q6_NEAR">      0.00000000</i>
   <i name="OFIELD_Q6_FAR">      0.00000000</i>
   <i name="OFIELD_A">      0.00000000</i>
  </separator>
  <separator name="solvation model" >
   <i type="logical" name="LSOL"> F  </i>
  </separator>
 </parameters>
 <atominfo>
  <atoms>      95 </atoms>
  <types>       4 </types>
  <array name="atoms" >
   <dimension dim="1">ion</dimension>
   <field type="string">element</field>
   <field type="int">atomtype</field>
   <set>
    <rc><c>Ir</c><c>   1</c></rc>
    <rc><c>Ir</c><c>   1</c></rc>
    <rc><c>Ir</c><c>   1</c></rc>
    <rc><c>Ir</c><c>   1</c></rc>
    <rc><c>Ir</c><c>   1</c></rc>
    <rc><c>Ir</c><c>   1</c></rc>
    <rc><c>Ir</c><c>   1</c></rc>
    <rc><c>Ir</c><c>   1</c></rc>
    <rc><c>Ir</c><c>   1</c></rc>
    <rc><c>Ir</c><c>   1</c></rc>
    <rc><c>Ir</c><c>   1</c></rc>
    <rc><c>Ir</c><c>   1</c></rc>
    <rc><c>Ir</c><c>   1</c></rc>
    <rc><c>Ir</c><c>   1</c></rc>
    <rc><c>Ir</c><c>   1</c></rc>
    <rc><c>Ir</c><c>   1</c></rc>
    <rc><c>O </c><c>   2</c></rc>
    <rc><c>O </c><c>   2</c></rc>
    <rc><c>O </c><c>   2</c></rc>
    <rc><c>O </c><c>   2</c></rc>
    <rc><c>O </c><c>   2</c></rc>
    <rc><c>O </c><c>   2</c></rc>
    <rc><c>O </c><c>   2</c></rc>
    <rc><c>O </c><c>   2</c></rc>
    <rc><c>O </c><c>   2</c></rc>
    <rc><c>O </c><c>   2</c></rc>
    <rc><c>O </c><c>   2</c></rc>
    <rc><c>O </c><c>   2</c></rc>
    <rc><c>O </c><c>   2</c></rc>
    <rc><c>O </c><c>   2</c></rc>
    <rc><c>O </c><c>   2</c></rc>
    <rc><c>O </c><c>   2</c></rc>
    <rc><c>O </c><c>   2</c></rc>
    <rc><c>O </c><c>   2</c></rc>
    <rc><c>O </c><c>   2</c></rc>
    <rc><c>O </c><c>   2</c></rc>
    <rc><c>O </c><c>   2</c></rc>
    <rc><c>O </c><c>   2</c></rc>
    <rc><c>O </c><c>   2</c></rc>
    <rc><c>O </c><c>   2</c></rc>
    <rc><c>O </c><c>   2</c></rc>
    <rc><c>O </c><c>   2</c></rc>
    <rc><c>O </c><c>   2</c></rc>
    <rc><c>O </c><c>   2</c></rc>
    <rc><c>O </c><c>   2</c></rc>
    <rc><c>O </c><c>   2</c></rc>
    <rc><c>O </c><c>   2</c></rc>
    <rc><c>O </c><c>   2</c></rc>
    <rc><c>Ir</c><c>   3</c></rc>
    <rc><c>Ir</c><c>   3</c></rc>
    <rc><c>Ir</c><c>   3</c></rc>
    <rc><c>Ir</c><c>   3</c></rc>
    <rc><c>Ir</c><c>   3</c></rc>
    <rc><c>Ir</c><c>   3</c></rc>
    <rc><c>Ir</c><c>   3</c></rc>
    <rc><c>Ir</c><c>   3</c></rc>
    <rc><c>Ir</c><c>   3</c></rc>
    <rc><c>Ir</c><c>   3</c></rc>
    <rc><c>Ir</c><c>   3</c></rc>
    <rc><c>Ir</c><c>   3</c></rc>
    <rc><c>Ir</c><c>   3</c></rc>
    <rc><c>Ir</c><c>   3</c></rc>
    <rc><c>Ir</c><c>   3</c></rc>
    <rc><c>O </c><c>   4</c></rc>
    <rc><c>O </c><c>   4</c></rc>
    <rc><c>O </c><c>   4</c></rc>
    <rc><c>O </c><c>   4</c></rc>
    <rc><c>O </c><c>   4</c></rc>
    <rc><c>O </c><c>   4</c></rc>
    <rc><c>O </c><c>   4</c></rc>
    <rc><c>O </c><c>   4</c></rc>
    <rc><c>O </c><c>   4</c></rc>
    <rc><c>O </c><c>   4</c></rc>
    <rc><c>O </c><c>   4</c></rc>
    <rc><c>O </c><c>   4</c></rc>
    <rc><c>O </c><c>   4</c></rc>
    <rc><c>O </c><c>   4</c></rc>
    <rc><c>O </c><c>   4</c></rc>
    <rc><c>O </c><c>   4</c></rc>
    <rc><c>O </c><c>   4</c></rc>
    <rc><c>O </c><c>   4</c></rc>
    <rc><c>O </c><c>   4</c></rc>
    <rc><c>O </c><c>   4</c></rc>
    <rc><c>O </c><c>   4</c></rc>
    <rc><c>O </c><c>   4</c></rc>
    <rc><c>O </c><c>   4</c></rc>
    <rc><c>O </c><c>   4</c></rc>
    <rc><c>O </c><c>   4</c></rc>
    <rc><c>O </c><c>   4</c></rc>
    <rc><c>O </c><c>   4</c></rc>
    <rc><c>O </c><c>   4</c></rc>
    <rc><c>O </c><c>   4</c></rc>
    <rc><c>O </c><c>   4</c></rc>
    <rc><c>O </c><c>   4</c></rc>
    <rc><c>O </c><c>   4</c></rc>
   </set>
  </array>
  <array name="atomtypes" >
   <dimension dim="1">type</dimension>
   <field type="int">atomspertype</field>
   <field type="string">element</field>
   <field>mass</field>
   <field>valence</field>
   <field type="string">pseudopotential</field>
   <set>
    <rc><c>  16</c><c>Ir</c><c>    192.22000000</c><c>      9.00000000</c><c>  PAW_PBE Ir 06Sep2000                  </c></rc>
    <rc><c>  32</c><c>O </c><c>     16.00000000</c><c>      6.00000000</c><c>  PAW_PBE O 08Apr2002                   </c></rc>
    <rc><c>  15</c><c>Ir</c><c>    192.22000000</c><c>      9.00000000</c><c>  PAW_PBE Ir 06Sep2000                  </c></rc>
    <rc><c>  32</c><c>O </c><c>     16.00000000</c><c>      6.00000000</c><c>  PAW_PBE O 08Apr2002                   </c></rc>
   </set>
  </array>
 </atominfo>
 <structure name="initialpos" >
  <crystal>
   <varray name="basis" >
    <v>      12.80853200       0.00000000       0.00000000 </v>
    <v>       0.00000000       6.47024300       0.00000000 </v>
    <v>       0.00000000       0.00000000      25.88097200 </v>
   </varray>
   <i name="volume">   2144.86781344 </i>
   <varray name="rec_basis" >
    <v>       0.07807296       0.00000000       0.00000000 </v>
    <v>       0.00000000       0.15455370       0.00000000 </v>
    <v>       0.00000000       0.00000000       0.03863843 </v>
   </varray>
  </crystal>
  <varray name="positions" >
   <v>       0.12500000       0.50000000       0.18750000 </v>
   <v>       0.37500000       0.50000000       0.18750000 </v>
   <v>       0.12500000       0.00000000       0.06250000 </v>
   <v>       0.37500000       0.00000000       0.06250000 </v>
   <v>       0.00000000       0.50000000       0.06250000 </v>
   <v>       0.25000000       0.50000000       0.06250000 </v>
   <v>       0.00000000       0.00000000       0.18750000 </v>
   <v>       0.25000000       0.00000000       0.18750000 </v>
   <v>       0.12498476       0.50000000       0.43896991 </v>
   <v>       0.37500385       0.50000000       0.43897212 </v>
   <v>       0.12499516       0.00000000       0.31211760 </v>
   <v>       0.37499951       0.00000000       0.31211853 </v>
   <v>       0.99999986       0.50000000       0.31308780 </v>
   <v>       0.24999695       0.50000000       0.31304919 </v>
   <v>       0.00001260       0.00000000       0.43516652 </v>
   <v>       0.24999832       0.00000000       0.43522899 </v>
   <v>       0.00000000       0.50000000       0.13961000 </v>
   <v>       0.25000000       0.50000000       0.13961000 </v>
   <v>       0.00000000       0.00000000       0.01461000 </v>
   <v>       0.25000000       0.00000000       0.01461000 </v>
   <v>       0.12500000       0.80844000       0.18750000 </v>
   <v>       0.37500000       0.80844000       0.18750000 </v>
   <v>       0.12500000       0.30844000       0.06250000 </v>
   <v>       0.37500000       0.30844000       0.06250000 </v>
   <v>       0.00000000       0.50000000       0.23539000 </v>
   <v>       0.25000000       0.50000000       0.23539000 </v>
   <v>       0.00000000       0.00000000       0.11039000 </v>
   <v>       0.25000000       0.00000000       0.11039000 </v>
   <v>       0.12500000       0.19156000       0.18750000 </v>
   <v>       0.37500000       0.19156000       0.18750000 </v>
   <v>       0.12500000       0.69156000       0.06250000 </v>
   <v>       0.37500000       0.69156000       0.06250000 </v>
   <v>       0.00000328       0.50000000       0.39015128 </v>
   <v>       0.24999151       0.50000000       0.39007305 </v>
   <v>       0.99999177       0.00000000       0.26417105 </v>
   <v>       0.25000199       0.00000000       0.26416404 </v>
   <v>       0.12509087       0.80991002       0.44063705 </v>
   <v>       0.37493084       0.80988227       0.44063407 </v>
   <v>       0.12482499       0.30834415       0.31282927 </v>
   <v>       0.37516860       0.30836300       0.31281841 </v>
   <v>       0.00005479       0.50000000       0.48495206 </v>
   <v>       0.24999337       0.50000000       0.48494745 </v>
   <v>       0.99997014       0.00000000       0.35957356 </v>
   <v>       0.24998244       0.00000000       0.35960527 </v>
   <v>       0.12509087       0.19008998       0.44063705 </v>
   <v>       0.37493084       0.19011773       0.44063407 </v>
   <v>       0.12482499       0.69165585       0.31282927 </v>
   <v>       0.37516860       0.69163700       0.31281841 </v>
   <v>       0.62500000       0.50000000       0.18750000 </v>
   <v>       0.87500000       0.50000000       0.18750000 </v>
   <v>       0.62500000       0.00000000       0.06250000 </v>
   <v>       0.87500000       0.00000000       0.06250000 </v>
   <v>       0.50000000       0.50000000       0.06250000 </v>
   <v>       0.75000000       0.50000000       0.06250000 </v>
   <v>       0.50000000       0.00000000       0.18750000 </v>
   <v>       0.75000000       0.00000000       0.18750000 </v>
   <v>       0.62499467       0.50000000       0.43897083 </v>
   <v>       0.62500007       0.00000000       0.31211933 </v>
   <v>       0.87500998       0.00000000       0.31211709 </v>
   <v>       0.50000833       0.50000000       0.31308939 </v>
   <v>       0.75000722       0.50000000       0.31304687 </v>
   <v>       0.50000006       0.00000000       0.43517729 </v>
   <v>       0.75001583       0.00000000       0.43523195 </v>
   <v>       0.50000000       0.50000000       0.13961000 </v>
   <v>       0.75000000       0.50000000       0.13961000 </v>
   <v>       0.50000000       0.00000000       0.01461000 </v>
   <v>       0.75000000       0.00000000       0.01461000 </v>
   <v>       0.62500000       0.80844000       0.18750000 </v>
   <v>       0.87500000       0.80844000       0.18750000 </v>
   <v>       0.62500000       0.30844000       0.06250000 </v>
   <v>       0.87500000       0.30844000       0.06250000 </v>
   <v>       0.50000000       0.50000000       0.23539000 </v>
   <v>       0.75000000       0.50000000       0.23539000 </v>
   <v>       0.50000000       0.00000000       0.11039000 </v>
   <v>       0.75000000       0.00000000       0.11039000 </v>
   <v>       0.62500000       0.19156000       0.18750000 </v>
   <v>       0.87500000       0.19156000       0.18750000 </v>
   <v>       0.62500000       0.69156000       0.06250000 </v>
   <v>       0.87500000       0.69156000       0.06250000 </v>
   <v>       0.49999772       0.50000000       0.39015215 </v>
   <v>       0.75000997       0.50000000       0.39008087 </v>
   <v>       0.50000658       0.00000000       0.26418039 </v>
   <v>       0.74999770       0.00000000       0.26417021 </v>
   <v>       0.62507139       0.80988793       0.44062207 </v>
   <v>       0.87492043       0.80989160       0.44062326 </v>
   <v>       0.62483232       0.30835024       0.31284081 </v>
   <v>       0.87517731       0.30834886       0.31283868 </v>
   <v>       0.49995016       0.50000000       0.48495143 </v>
   <v>       0.75000435       0.50000000       0.48495703 </v>
   <v>       0.50002939       0.00000000       0.35957277 </v>
   <v>       0.74996796       0.00000000       0.35966710 </v>
   <v>       0.62507139       0.19011207       0.44062207 </v>
   <v>       0.87492043       0.19010840       0.44062326 </v>
   <v>       0.62483232       0.69164976       0.31284081 </v>
   <v>       0.87517731       0.69165114       0.31283868 </v>
  </varray>
  <varray name="selective"  type="logical" >
   <v type="logical" >  F  F  F </v>
   <v type="logical" >  F  F  F </v>
   <v type="logical" >  F  F  F </v>
   <v type="logical" >  F  F  F </v>
   <v type="logical" >  F  F  F </v>
   <v type="logical" >  F  F  F </v>
   <v type="logical" >  F  F  F </v>
   <v type="logical" >  F  F  F </v>
   <v type="logical" >  T  T  T </v>
   <v type="logical" >  T  T  T </v>
   <v type="logical" >  T  T  T </v>
   <v type="logical" >  T  T  T </v>
   <v type="logical" >  T  T  T </v>
   <v type="logical" >  T  T  T </v>
   <v type="logical" >  T  T  T </v>
   <v type="logical" >  T  T  T </v>
   <v type="logical" >  F  F  F </v>
   <v type="logical" >  F  F  F </v>
   <v type="logical" >  F  F  F </v>
   <v type="logical" >  F  F  F </v>
   <v type="logical" >  F  F  F </v>
   <v type="logical" >  F  F  F </v>
   <v type="logical" >  F  F  F </v>
   <v type="logical" >  F  F  F </v>
   <v type="logical" >  F  F  F </v>
   <v type="logical" >  F  F  F </v>
   <v type="logical" >  F  F  F </v>
   <v type="logical" >  F  F  F </v>
   <v type="logical" >  F  F  F </v>
   <v type="logical" >  F  F  F </v>
   <v type="logical" >  F  F  F </v>
   <v type="logical" >  F  F  F </v>
   <v type="logical" >  T  T  T </v>
   <v type="logical" >  T  T  T </v>
   <v type="logical" >  T  T  T </v>
   <v type="logical" >  T  T  T </v>
   <v type="logical" >  T  T  T </v>
   <v type="logical" >  T  T  T </v>
   <v type="logical" >  T  T  T </v>
   <v type="logical" >  T  T  T </v>
   <v type="logical" >  T  T  T </v>
   <v type="logical" >  T  T  T </v>
   <v type="logical" >  T  T  T </v>
   <v type="logical" >  T  T  T </v>
   <v type="logical" >  T  T  T </v>
   <v type="logical" >  T  T  T </v>
   <v type="logical" >  T  T  T </v>
   <v type="logical" >  T  T  T </v>
   <v type="logical" >  F  F  F </v>
   <v type="logical" >  F  F  F </v>
   <v type="logical" >  F  F  F </v>
   <v type="logical" >  F  F  F </v>
   <v type="logical" >  F  F  F </v>
   <v type="logical" >  F  F  F </v>
   <v type="logical" >  F  F  F </v>
   <v type="logical" >  F  F  F </v>
   <v type="logical" >  T  T  T </v>
   <v type="logical" >  T  T  T </v>
   <v type="logical" >  T  T  T </v>
   <v type="logical" >  T  T  T </v>
   <v type="logical" >  T  T  T </v>
   <v type="logical" >  T  T  T </v>
   <v type="logical" >  T  T  T </v>
   <v type="logical" >  F  F  F </v>
   <v type="logical" >  F  F  F </v>
   <v type="logical" >  F  F  F </v>
   <v type="logical" >  F  F  F </v>
   <v type="logical" >  F  F  F </v>
   <v type="logical" >  F  F  F </v>
   <v type="logical" >  F  F  F </v>
   <v type="logical" >  F  F  F </v>
   <v type="logical" >  F  F  F </v>
   <v type="logical" >  F  F  F </v>
   <v type="logical" >  F  F  F </v>
   <v type="logical" >  F  F  F </v>
   <v type="logical" >  F  F  F </v>
   <v type="logical" >  F  F  F </v>
   <v type="logical" >  F  F  F </v>
   <v type="logical" >  F  F  F </v>
   <v type="logical" >  T  T  T </v>
   <v type="logical" >  T  T  T </v>
   <v type="logical" >  T  T  T </v>
   <v type="logical" >  T  T  T </v>
   <v type="logical" >  T  T  T </v>
   <v type="logical" >  T  T  T </v>
   <v type="logical" >  T  T  T </v>
   <v type="logical" >  T  T  T </v>
   <v type="logical" >  T  T  T </v>
   <v type="logical" >  T  T  T </v>
   <v type="logical" >  T  T  T </v>
   <v type="logical" >  T  T  T </v>
   <v type="logical" >  T  T  T </v>
   <v type="logical" >  T  T  T </v>
   <v type="logical" >  T  T  T </v>
   <v type="logical" >  T  T  T </v>
  </varray>
  <nose>
   <v>      -3.00000000       0.00000000       0.00010000       0.00010000 </v>
  </nose>
 </structure>
 <calculation>
  <scstep>
   <time name="dav">   12.35   12.39</time>
   <time name="total">   12.46   12.51</time>
   <dipole>
    <v name="dipole">      0.00000000       0.00000000       0.00002238 </v>
    <i name="Tr[quadrupol]"> -12386.85660608 </i>
    <i name="Echarged">      0.00000000 </i>
    <i name="Edipol_quadrupol">      0.00000000 </i>
    <i name="Eion">      0.00000000 </i>
   </dipole>
   <energy>
    <i name="alphaZ">   1672.17299873 </i>
    <i name="ewald"> 228415.70457299 </i>
    <i name="hartreedc">-272874.94726475 </i>
    <i name="XCdc">   1216.78792892 </i>
    <i name="pawpsdc">  39309.68827056 </i>
    <i name="pawaedc"> -38128.60007117 </i>
    <i name="eentropy">     -0.04706652 </i>
    <i name="bandstr">   2737.53542256 </i>
    <i name="atom">  45009.43769902 </i>
    <i name="e_fr_energy">   7357.73249034 </i>
    <i name="e_wo_entrp">   7357.77955685 </i>
    <i name="e_0_energy">   7357.75602360 </i>
   </energy>
  </scstep>
  <scstep>
   <time name="dav">   12.82   12.86</time>
   <time name="total">   12.82   12.86</time>
   <dipole>
    <v name="dipole">      0.00000000       0.00000000       0.00002238 </v>
    <i name="Tr[quadrupol]"> -12386.85660608 </i>
    <i name="Echarged">      0.00000000 </i>
    <i name="Edipol_quadrupol">      0.00000000 </i>
    <i name="Eion">      0.00000000 </i>
   </dipole>
   <energy>
    <i name="e_fr_energy">    528.48573339 </i>
    <i name="e_wo_entrp">    528.54160515 </i>
    <i name="e_0_energy">    528.51366927 </i>
   </energy>
  </scstep>
  <scstep>
   <time name="dav">   14.88   14.92</time>
   <time name="total">   14.88   14.93</time>
   <dipole>
    <v name="dipole">      0.00000000       0.00000000       0.00002238 </v>
    <i name="Tr[quadrupol]"> -12386.85660608 </i>
    <i name="Echarged">      0.00000000 </i>
    <i name="Edipol_quadrupol">      0.00000000 </i>
    <i name="Eion">      0.00000000 </i>
   </dipole>
   <energy>
    <i name="e_fr_energy">   -663.00368110 </i>
    <i name="e_wo_entrp">   -662.92204423 </i>
    <i name="e_0_energy">   -662.96286266 </i>
   </energy>
  </scstep>
  <scstep>
   <time name="dav">   14.90   14.97</time>
   <time name="total">   14.91   14.97</time>
   <dipole>
    <v name="dipole">      0.00000000       0.00000000       0.00002238 </v>
    <i name="Tr[quadrupol]"> -12386.85660608 </i>
    <i name="Echarged">      0.00000000 </i>
    <i name="Edipol_quadrupol">      0.00000000 </i>
    <i name="Eion">      0.00000000 </i>
   </dipole>
   <energy>
    <i name="e_fr_energy">   -732.58609197 </i>
    <i name="e_wo_entrp">   -732.49796243 </i>
    <i name="e_0_energy">   -732.54202720 </i>
   </energy>
  </scstep>
  <scstep>
   <time name="dav">   14.92   14.96</time>
   <time name="total">   15.24   15.28</time>
   <dipole>
    <v name="dipole">      0.00000000       0.00000000       0.00002238 </v>
    <i name="Tr[quadrupol]"> -12386.85660608 </i>
    <i name="Echarged">      0.00000000 </i>
    <i name="Edipol_quadrupol">      0.00000000 </i>
    <i name="Eion">      0.00000000 </i>
   </dipole>
   <energy>
    <i name="e_fr_energy">   -734.76030285 </i>
    <i name="e_wo_entrp">   -734.67140541 </i>
    <i name="e_0_energy">   -734.71585413 </i>
   </energy>
  </scstep>
  <scstep>
   <time name="diag">    1.72    1.73</time>
   <time name="diis">    4.73    4.75</time>
   <time name="orth">    0.53    0.53</time>
   <time name="total">    7.39    7.42</time>
   <dipole>
    <v name="dipole">      0.00000000       0.00000000       1.76314615 </v>
    <i name="Tr[quadrupol]"> -12375.08956091 </i>
    <i name="Echarged">      0.00000000 </i>
    <i name="Edipol_quadrupol">      0.00000000 </i>
    <i name="Eion">      0.00000000 </i>
   </dipole>
   <energy>
    <i name="e_fr_energy">   -674.69741911 </i>
    <i name="e_wo_entrp">   -674.65344463 </i>
    <i name="e_0_energy">   -674.67543187 </i>
   </energy>
  </scstep>
  <scstep>
   <time name="diag">    1.74    1.75</time>
   <time name="diis">    5.42    5.44</time>
   <time name="orth">    0.53    0.53</time>
   <time name="total">    8.10    8.12</time>
   <dipole>
    <v name="dipole">      0.00000000       0.00000000     -13.26330687 </v>
    <i name="Tr[quadrupol]"> -12400.96900301 </i>
    <i name="Echarged">      0.00000000 </i>
    <i name="Edipol_quadrupol">      0.00000000 </i>
    <i name="Eion">      0.00000000 </i>
   </dipole>
   <energy>
    <i name="e_fr_energy">  -2215.68972370 </i>
    <i name="e_wo_entrp">  -2215.67621531 </i>
    <i name="e_0_energy">  -2215.68296950 </i>
   </energy>
  </scstep>
  <scstep>
   <time name="diag">    1.73    1.73</time>
   <time name="diis">    5.94    5.96</time>
   <time name="orth">    0.53    0.53</time>
   <time name="total">    8.60    8.64</time>
   <dipole>
    <v name="dipole">      0.00000000       0.00000000     -12.35869804 </v>
    <i name="Tr[quadrupol]"> -12403.32463782 </i>
    <i name="Echarged">      0.00000000 </i>
    <i name="Edipol_quadrupol">      0.00000000 </i>
    <i name="Eion">      0.00000000 </i>
   </dipole>
   <energy>
    <i name="e_fr_energy">  -2075.52888250 </i>
    <i name="e_wo_entrp">  -2075.49872388 </i>
    <i name="e_0_energy">  -2075.51380319 </i>
   </energy>
  </scstep>
  <scstep>
   <time name="diag">    1.72    1.73</time>
   <time name="diis">    4.74    4.75</time>
   <time name="orth">    0.53    0.53</time>
   <time name="total">    7.40    7.42</time>
   <dipole>
    <v name="dipole">      0.00000000       0.00000000       9.67601874 </v>
    <i name="Tr[quadrupol]"> -12332.34572735 </i>
    <i name="Echarged">      0.00000000 </i>
    <i name="Edipol_quadrupol">      0.00000000 </i>
    <i name="Eion">      0.00000000 </i>
   </dipole>
   <energy>
    <i name="e_fr_energy">  -1134.71616235 </i>
    <i name="e_wo_entrp">  -1134.67454309 </i>
    <i name="e_0_energy">  -1134.69535272 </i>
   </energy>
  </scstep>
  <scstep>
   <time name="diag">    1.72    1.73</time>
   <time name="diis">    4.86    4.87</time>
   <time name="orth">    0.53    0.53</time>
   <time name="total">    7.52    7.54</time>
   <dipole>
    <v name="dipole">      0.00000000       0.00000000       7.39207829 </v>
    <i name="Tr[quadrupol]"> -12346.32303402 </i>
    <i name="Echarged">      0.00000000 </i>
    <i name="Edipol_quadrupol">      0.00000000 </i>
    <i name="Eion">      0.00000000 </i>
   </dipole>
   <energy>
    <i name="e_fr_energy">  -1021.12589548 </i>
    <i name="e_wo_entrp">  -1021.08881509 </i>
    <i name="e_0_energy">  -1021.10735529 </i>
   </energy>
  </scstep>
  <scstep>
   <time name="diag">    1.72    1.73</time>
   <time name="diis">    5.09    5.11</time>
   <time name="orth">    0.53    0.53</time>
   <time name="total">    7.75    7.77</time>
   <dipole>
    <v name="dipole">      0.00000000       0.00000000       6.73194535 </v>
    <i name="Tr[quadrupol]"> -12332.28705882 </i>
    <i name="Echarged">      0.00000000 </i>
    <i name="Edipol_quadrupol">      0.00000000 </i>
    <i name="Eion">      0.00000000 </i>
   </dipole>
   <energy>
    <i name="e_fr_energy">   -880.89350027 </i>
    <i name="e_wo_entrp">   -880.87233346 </i>
    <i name="e_0_energy">   -880.88291686 </i>
   </energy>
  </scstep>
  <scstep>
   <time name="diag">    1.73    1.73</time>
   <time name="diis">    4.76    4.77</time>
   <time name="orth">    0.53    0.53</time>
   <time name="total">    7.42    7.45</time>
   <dipole>
    <v name="dipole">      0.00000000       0.00000000       7.34025675 </v>
    <i name="Tr[quadrupol]"> -12290.93414407 </i>
    <i name="Echarged">      0.00000000 </i>
    <i name="Edipol_quadrupol">      0.00000000 </i>
    <i name="Eion">      0.00000000 </i>
   </dipole>
   <energy>
    <i name="e_fr_energy">   -688.81324555 </i>
    <i name="e_wo_entrp">   -688.75660952 </i>
    <i name="e_0_energy">   -688.78492753 </i>
   </energy>
  </scstep>
  <scstep>
   <time name="diag">    1.73    1.73</time>
   <time name="diis">    4.71    4.74</time>
   <time name="orth">    0.53    0.53</time>
   <time name="total">    7.37    7.41</time>
   <dipole>
    <v name="dipole">      0.00000000       0.00000000       5.84086997 </v>
    <i name="Tr[quadrupol]"> -12295.82278992 </i>
    <i name="Echarged">      0.00000000 </i>
    <i name="Edipol_quadrupol">      0.00000000 </i>
    <i name="Eion">      0.00000000 </i>
   </dipole>
   <energy>
    <i name="e_fr_energy">   -595.44667232 </i>
    <i name="e_wo_entrp">   -595.40051058 </i>
    <i name="e_0_energy">   -595.42359145 </i>
   </energy>
  </scstep>
  <scstep>
   <time name="diag">    1.72    1.73</time>
   <time name="diis">    4.74    4.76</time>
   <time name="orth">    0.53    0.53</time>
   <time name="total">    7.40    7.43</time>
   <dipole>
    <v name="dipole">      0.00000000       0.00000000       6.41374717 </v>
    <i name="Tr[quadrupol]"> -12287.98975201 </i>
    <i name="Echarged">      0.00000000 </i>
    <i name="Edipol_quadrupol">      0.00000000 </i>
    <i name="Eion">      0.00000000 </i>
   </dipole>
   <energy>
    <i name="e_fr_energy">   -587.80693358 </i>
    <i name="e_wo_entrp">   -587.73149044 </i>
    <i name="e_0_energy">   -587.76921201 </i>
   </energy>
  </scstep>
  <scstep>
   <time name="diag">    1.73    1.73</time>
   <time name="diis">    4.74    4.76</time>
   <time name="orth">    0.53    0.53</time>
   <time name="total">    7.41    7.43</time>
   <dipole>
    <v name="dipole">      0.00000000       0.00000000       6.50647717 </v>
    <i name="Tr[quadrupol]"> -12278.31984821 </i>
    <i name="Echarged">      0.00000000 </i>
    <i name="Edipol_quadrupol">      0.00000000 </i>
    <i name="Eion">      0.00000000 </i>
   </dipole>
   <energy>
    <i name="e_fr_energy">   -582.96819214 </i>
    <i name="e_wo_entrp">   -582.89521134 </i>
    <i name="e_0_energy">   -582.93170174 </i>
   </energy>
  </scstep>
  <scstep>
   <time name="diag">    1.73    1.73</time>
   <time name="diis">    4.72    4.74</time>
   <time name="orth">    0.53    0.53</time>
   <time name="total">    7.39    7.42</time>
   <dipole>
    <v name="dipole">      0.00000000       0.00000000       6.40232074 </v>
    <i name="Tr[quadrupol]"> -12272.74899121 </i>
    <i name="Echarged">      0.00000000 </i>
    <i name="Edipol_quadrupol">      0.00000000 </i>
    <i name="Eion">      0.00000000 </i>
   </dipole>
   <energy>
    <i name="e_fr_energy">   -583.52408261 </i>
    <i name="e_wo_entrp">   -583.46125447 </i>
    <i name="e_0_energy">   -583.49266854 </i>
   </energy>
  </scstep>
  <scstep>
   <time name="diag">    1.73    1.73</time>
   <time name="diis">    4.73    4.74</time>
   <time name="orth">    0.53    0.53</time>
   <time name="total">    7.40    7.42</time>
   <dipole>
    <v name="dipole">      0.00000000       0.00000000       6.68696008 </v>
    <i name="Tr[quadrupol]"> -12269.05846659 </i>
    <i name="Echarged">      0.00000000 </i>
    <i name="Edipol_quadrupol">      0.00000000 </i>
    <i name="Eion">      0.00000000 </i>
   </dipole>
   <energy>
    <i name="e_fr_energy">   -592.60086947 </i>
    <i name="e_wo_entrp">   -592.54250541 </i>
    <i name="e_0_energy">   -592.57168744 </i>
   </energy>
  </scstep>
  <scstep>
   <time name="diag">    1.73    1.73</time>
   <time name="diis">    4.78    4.79</time>
   <time name="orth">    0.53    0.53</time>
   <time name="total">    7.44    7.46</time>
   <dipole>
    <v name="dipole">      0.00000000       0.00000000       6.74255619 </v>
    <i name="Tr[quadrupol]"> -12266.40033482 </i>
    <i name="Echarged">      0.00000000 </i>
    <i name="Edipol_quadrupol">      0.00000000 </i>
    <i name="Eion">      0.00000000 </i>
   </dipole>
   <energy>
    <i name="e_fr_energy">   -599.19819025 </i>
    <i name="e_wo_entrp">   -599.15944249 </i>
    <i name="e_0_energy">   -599.17881637 </i>
   </energy>
  </scstep>
  <scstep>
   <time name="diag">    1.73    1.73</time>
   <time name="diis">    4.73    4.74</time>
   <time name="orth">    0.53    0.53</time>
   <time name="total">    7.40    7.42</time>
   <dipole>
    <v name="dipole">      0.00000000       0.00000000       6.62074079 </v>
    <i name="Tr[quadrupol]"> -12264.63462147 </i>
    <i name="Echarged">      0.00000000 </i>
    <i name="Edipol_quadrupol">      0.00000000 </i>
    <i name="Eion">      0.00000000 </i>
   </dipole>
   <energy>
    <i name="e_fr_energy">   -599.88558905 </i>
    <i name="e_wo_entrp">   -599.80829704 </i>
    <i name="e_0_energy">   -599.84694304 </i>
   </energy>
  </scstep>
  <scstep>
   <time name="diag">    1.72    1.73</time>
   <time name="diis">    4.75    4.76</time>
   <time name="orth">    0.53    0.53</time>
   <time name="total">    7.41    7.43</time>
   <dipole>
    <v name="dipole">      0.00000000       0.00000000       6.03848840 </v>
    <i name="Tr[quadrupol]"> -12268.17526803 </i>
    <i name="Echarged">      0.00000000 </i>
    <i name="Edipol_quadrupol">      0.00000000 </i>
    <i name="Eion">      0.00000000 </i>
   </dipole>
   <energy>
    <i name="e_fr_energy">   -601.05624316 </i>
    <i name="e_wo_entrp">   -600.98796616 </i>
    <i name="e_0_energy">   -601.02210466 </i>
   </energy>
  </scstep>
  <scstep>
   <time name="diag">    1.72    1.73</time>
   <time name="diis">    4.73    4.74</time>
   <time name="orth">    0.53    0.53</time>
   <time name="total">    7.39    7.41</time>
   <dipole>
    <v name="dipole">      0.00000000       0.00000000       5.26968937 </v>
    <i name="Tr[quadrupol]"> -12273.79583142 </i>
    <i name="Echarged">      0.00000000 </i>
    <i name="Edipol_quadrupol">      0.00000000 </i>
    <i name="Eion">      0.00000000 </i>
   </dipole>
   <energy>
    <i name="e_fr_energy">   -600.56965653 </i>
    <i name="e_wo_entrp">   -600.50042103 </i>
    <i name="e_0_energy">   -600.53503878 </i>
   </energy>
  </scstep>
  <scstep>
   <time name="diag">    1.72    1.73</time>
   <time name="diis">    4.72    4.74</time>
   <time name="orth">    0.53    0.53</time>
   <time name="total">    7.39    7.41</time>
   <dipole>
    <v name="dipole">      0.00000000       0.00000000       5.13556342 </v>
    <i name="Tr[quadrupol]"> -12276.09097461 </i>
    <i name="Echarged">      0.00000000 </i>
    <i name="Edipol_quadrupol">      0.00000000 </i>
    <i name="Eion">      0.00000000 </i>
   </dipole>
   <energy>
    <i name="e_fr_energy">   -600.34054035 </i>
    <i name="e_wo_entrp">   -600.26978381 </i>
    <i name="e_0_energy">   -600.30516208 </i>
   </energy>
  </scstep>
  <scstep>
   <time name="diag">    1.72    1.72</time>
   <time name="diis">    4.73    4.76</time>
   <time name="orth">    0.53    0.53</time>
   <time name="total">    7.39    7.43</time>
   <dipole>
    <v name="dipole">      0.00000000       0.00000000       5.02641950 </v>
    <i name="Tr[quadrupol]"> -12279.56534448 </i>
    <i name="Echarged">      0.00000000 </i>
    <i name="Edipol_quadrupol">      0.00000000 </i>
    <i name="Eion">      0.00000000 </i>
   </dipole>
   <energy>
    <i name="e_fr_energy">   -600.15275218 </i>
    <i name="e_wo_entrp">   -600.08600482 </i>
    <i name="e_0_energy">   -600.11937850 </i>
   </energy>
  </scstep>
  <scstep>
   <time name="diag">    1.72    1.72</time>
   <time name="diis">    4.76    4.78</time>
   <time name="orth">    0.53    0.53</time>
   <time name="total">    7.42    7.45</time>
   <dipole>
    <v name="dipole">      0.00000000       0.00000000       4.37244549 </v>
    <i name="Tr[quadrupol]"> -12290.40401972 </i>
    <i name="Echarged">      0.00000000 </i>
    <i name="Edipol_quadrupol">      0.00000000 </i>
    <i name="Eion">      0.00000000 </i>
   </dipole>
   <energy>
    <i name="e_fr_energy">   -599.01742415 </i>
    <i name="e_wo_entrp">   -598.95881909 </i>
    <i name="e_0_energy">   -598.98812162 </i>
   </energy>
  </scstep>
  <scstep>
   <time name="diag">    1.72    1.72</time>
   <time name="diis">    4.74    4.76</time>
   <time name="orth">    0.53    0.53</time>
   <time name="total">    7.40    7.43</time>
   <dipole>
    <v name="dipole">      0.00000000       0.00000000       3.82749171 </v>
    <i name="Tr[quadrupol]"> -12299.94022024 </i>
    <i name="Echarged">      0.00000000 </i>
    <i name="Edipol_quadrupol">      0.00000000 </i>
    <i name="Eion">      0.00000000 </i>
   </dipole>
   <energy>
    <i name="e_fr_energy">   -598.82179721 </i>
    <i name="e_wo_entrp">   -598.75977970 </i>
    <i name="e_0_energy">   -598.79078845 </i>
   </energy>
  </scstep>
  <scstep>
   <time name="diag">    1.72    1.72</time>
   <time name="diis">    4.76    4.77</time>
   <time name="orth">    0.54    0.54</time>
   <time name="total">    7.43    7.45</time>
   <dipole>
    <v name="dipole">      0.00000000       0.00000000       3.66491164 </v>
    <i name="Tr[quadrupol]"> -12305.16801028 </i>
    <i name="Echarged">      0.00000000 </i>
    <i name="Edipol_quadrupol">      0.00000000 </i>
    <i name="Eion">      0.00000000 </i>
   </dipole>
   <energy>
    <i name="e_fr_energy">   -598.95279252 </i>
    <i name="e_wo_entrp">   -598.89492213 </i>
    <i name="e_0_energy">   -598.92385733 </i>
   </energy>
  </scstep>
  <scstep>
   <time name="diag">    1.72    1.73</time>
   <time name="diis">    4.77    4.78</time>
   <time name="orth">    0.53    0.53</time>
   <time name="total">    7.43    7.46</time>
   <dipole>
    <v name="dipole">      0.00000000       0.00000000       3.11845130 </v>
    <i name="Tr[quadrupol]"> -12316.66207695 </i>
    <i name="Echarged">      0.00000000 </i>
    <i name="Edipol_quadrupol">      0.00000000 </i>
    <i name="Eion">      0.00000000 </i>
   </dipole>
   <energy>
    <i name="e_fr_energy">   -598.84643413 </i>
    <i name="e_wo_entrp">   -598.78585125 </i>
    <i name="e_0_energy">   -598.81614269 </i>
   </energy>
  </scstep>
  <scstep>
   <time name="diag">    1.72    1.72</time>
   <time name="diis">    4.79    4.80</time>
   <time name="orth">    0.53    0.53</time>
   <time name="total">    7.45    7.47</time>
   <dipole>
    <v name="dipole">      0.00000000       0.00000000       2.48028830 </v>
    <i name="Tr[quadrupol]"> -12332.19436825 </i>
    <i name="Echarged">      0.00000000 </i>
    <i name="Edipol_quadrupol">      0.00000000 </i>
    <i name="Eion">      0.00000000 </i>
   </dipole>
   <energy>
    <i name="e_fr_energy">   -598.75938289 </i>
    <i name="e_wo_entrp">   -598.68720600 </i>
    <i name="e_0_energy">   -598.72329444 </i>
   </energy>
  </scstep>
  <scstep>
   <time name="diag">    1.72    1.73</time>
   <time name="diis">    4.74    4.75</time>
   <time name="orth">    0.53    0.53</time>
   <time name="total">    7.40    7.43</time>
   <dipole>
    <v name="dipole">      0.00000000       0.00000000       2.17511848 </v>
    <i name="Tr[quadrupol]"> -12341.85884542 </i>
    <i name="Echarged">      0.00000000 </i>
    <i name="Edipol_quadrupol">      0.00000000 </i>
    <i name="Eion">      0.00000000 </i>
   </dipole>
   <energy>
    <i name="e_fr_energy">   -598.55621064 </i>
    <i name="e_wo_entrp">   -598.48946886 </i>
    <i name="e_0_energy">   -598.52283975 </i>
   </energy>
  </scstep>
  <scstep>
   <time name="diag">    1.72    1.73</time>
   <time name="diis">    4.78    4.79</time>
   <time name="orth">    0.54    0.55</time>
   <time name="total">    7.46    7.48</time>
   <dipole>
    <v name="dipole">      0.00000000       0.00000000       1.57901970 </v>
    <i name="Tr[quadrupol]"> -12356.20243980 </i>
    <i name="Echarged">      0.00000000 </i>
    <i name="Edipol_quadrupol">      0.00000000 </i>
    <i name="Eion">      0.00000000 </i>
   </dipole>
   <energy>
    <i name="e_fr_energy">   -599.08623427 </i>
    <i name="e_wo_entrp">   -599.01562923 </i>
    <i name="e_0_energy">   -599.05093175 </i>
   </energy>
  </scstep>
  <scstep>
   <time name="diag">    1.72    1.73</time>
   <time name="diis">    4.73    4.74</time>
   <time name="orth">    0.53    0.53</time>
   <time name="total">    7.40    7.42</time>
   <dipole>
    <v name="dipole">      0.00000000       0.00000000       1.32474653 </v>
    <i name="Tr[quadrupol]"> -12362.92536440 </i>
    <i name="Echarged">      0.00000000 </i>
    <i name="Edipol_quadrupol">      0.00000000 </i>
    <i name="Eion">      0.00000000 </i>
   </dipole>
   <energy>
    <i name="e_fr_energy">   -599.25068343 </i>
    <i name="e_wo_entrp">   -599.18339049 </i>
    <i name="e_0_energy">   -599.21703696 </i>
   </energy>
  </scstep>
  <scstep>
   <time name="diag">    1.72    1.73</time>
   <time name="diis">    4.74    4.75</time>
   <time name="orth">    0.53    0.53</time>
   <time name="total">    7.41    7.43</time>
   <dipole>
    <v name="dipole">      0.00000000       0.00000000       1.06761659 </v>
    <i name="Tr[quadrupol]"> -12366.27459981 </i>
    <i name="Echarged">      0.00000000 </i>
    <i name="Edipol_quadrupol">      0.00000000 </i>
    <i name="Eion">      0.00000000 </i>
   </dipole>
   <energy>
    <i name="e_fr_energy">   -599.83997557 </i>
    <i name="e_wo_entrp">   -599.76589413 </i>
    <i name="e_0_energy">   -599.80293485 </i>
   </energy>
  </scstep>
  <scstep>
   <time name="diag">    1.72    1.73</time>
   <time name="diis">    4.75    4.78</time>
   <time name="orth">    0.53    0.53</time>
   <time name="total">    7.42    7.46</time>
   <dipole>
    <v name="dipole">      0.00000000       0.00000000       0.85003343 </v>
    <i name="Tr[quadrupol]"> -12368.05960019 </i>
    <i name="Echarged">      0.00000000 </i>
    <i name="Edipol_quadrupol">      0.00000000 </i>
    <i name="Eion">      0.00000000 </i>
   </dipole>
   <energy>
    <i name="e_fr_energy">   -600.23080777 </i>
    <i name="e_wo_entrp">   -600.15435238 </i>
    <i name="e_0_energy">   -600.19258007 </i>
   </energy>
  </scstep>
  <scstep>
   <time name="diag">    1.72    1.73</time>
   <time name="diis">    4.73    4.75</time>
   <time name="orth">    0.53    0.53</time>
   <time name="total">    7.41    7.44</time>
   <dipole>
    <v name="dipole">      0.00000000       0.00000000       0.66026926 </v>
    <i name="Tr[quadrupol]"> -12368.70693640 </i>
    <i name="Echarged">      0.00000000 </i>
    <i name="Edipol_quadrupol">      0.00000000 </i>
    <i name="Eion">      0.00000000 </i>
   </dipole>
   <energy>
    <i name="e_fr_energy">   -600.48837255 </i>
    <i name="e_wo_entrp">   -600.41447719 </i>
    <i name="e_0_energy">   -600.45142487 </i>
   </energy>
  </scstep>
  <scstep>
   <time name="diag">    1.72    1.73</time>
   <time name="diis">    4.73    4.75</time>
   <time name="orth">    0.53    0.53</time>
   <time name="total">    7.40    7.43</time>
   <dipole>
    <v name="dipole">      0.00000000       0.00000000       0.58045996 </v>
    <i name="Tr[quadrupol]"> -12367.76208827 </i>
    <i name="Echarged">      0.00000000 </i>
    <i name="Edipol_quadrupol">      0.00000000 </i>
    <i name="Eion">      0.00000000 </i>
   </dipole>
   <energy>
    <i name="e_fr_energy">   -600.55305225 </i>
    <i name="e_wo_entrp">   -600.47752195 </i>
    <i name="e_0_energy">   -600.51528710 </i>
   </energy>
  </scstep>
  <scstep>
   <time name="diag">    1.72    1.73</time>
   <time name="diis">    4.75    4.76</time>
   <time name="orth">    0.53    0.53</time>
   <time name="total">    7.43    7.45</time>
   <dipole>
    <v name="dipole">      0.00000000       0.00000000       0.21020937 </v>
    <i name="Tr[quadrupol]"> -12373.27192363 </i>
    <i name="Echarged">      0.00000000 </i>
    <i name="Edipol_quadrupol">      0.00000000 </i>
    <i name="Eion">      0.00000000 </i>
   </dipole>
   <energy>
    <i name="e_fr_energy">   -600.91912813 </i>
    <i name="e_wo_entrp">   -600.85107592 </i>
    <i name="e_0_energy">   -600.88510203 </i>
   </energy>
  </scstep>
  <scstep>
   <time name="diag">    1.72    1.73</time>
   <time name="diis">    4.73    4.75</time>
   <time name="orth">    0.53    0.53</time>
   <time name="total">    7.41    7.43</time>
   <dipole>
    <v name="dipole">      0.00000000       0.00000000      -0.16225524 </v>
    <i name="Tr[quadrupol]"> -12379.31857369 </i>
    <i name="Echarged">      0.00000000 </i>
    <i name="Edipol_quadrupol">      0.00000000 </i>
    <i name="Eion">      0.00000000 </i>
   </dipole>
   <energy>
    <i name="e_fr_energy">   -600.98507738 </i>
    <i name="e_wo_entrp">   -600.92071509 </i>
    <i name="e_0_energy">   -600.95289623 </i>
   </energy>
  </scstep>
  <scstep>
   <time name="diag">    1.72    1.73</time>
   <time name="diis">    4.72    4.73</time>
   <time name="orth">    0.53    0.53</time>
   <time name="total">    7.39    7.41</time>
   <dipole>
    <v name="dipole">      0.00000000       0.00000000      -0.43004006 </v>
    <i name="Tr[quadrupol]"> -12383.49742685 </i>
    <i name="Echarged">      0.00000000 </i>
    <i name="Edipol_quadrupol">      0.00000000 </i>
    <i name="Eion">      0.00000000 </i>
   </dipole>
   <energy>
    <i name="e_fr_energy">   -601.10044829 </i>
    <i name="e_wo_entrp">   -601.03817170 </i>
    <i name="e_0_energy">   -601.06931000 </i>
   </energy>
  </scstep>
  <scstep>
   <time name="diag">    1.72    1.72</time>
   <time name="diis">    4.71    4.73</time>
   <time name="orth">    0.53    0.53</time>
   <time name="total">    7.40    7.43</time>
   <dipole>
    <v name="dipole">      0.00000000       0.00000000      -0.57249798 </v>
    <i name="Tr[quadrupol]"> -12385.55253312 </i>
    <i name="Echarged">      0.00000000 </i>
    <i name="Edipol_quadrupol">      0.00000000 </i>
    <i name="Eion">      0.00000000 </i>
   </dipole>
   <energy>
    <i name="e_fr_energy">   -601.26279657 </i>
    <i name="e_wo_entrp">   -601.20016976 </i>
    <i name="e_0_energy">   -601.23148317 </i>
   </energy>
  </scstep>
  <scstep>
   <time name="diag">    1.72    1.73</time>
   <time name="diis">    4.73    4.75</time>
   <time name="orth">    0.53    0.53</time>
   <time name="total">    7.41    7.43</time>
   <dipole>
    <v name="dipole">      0.00000000       0.00000000      -0.54969325 </v>
    <i name="Tr[quadrupol]"> -12386.39800949 </i>
    <i name="Echarged">      0.00000000 </i>
    <i name="Edipol_quadrupol">      0.00000000 </i>
    <i name="Eion">      0.00000000 </i>
   </dipole>
   <energy>
    <i name="e_fr_energy">   -601.34698089 </i>
    <i name="e_wo_entrp">   -601.28047057 </i>
    <i name="e_0_energy">   -601.31372573 </i>
   </energy>
  </scstep>
  <scstep>
   <time name="diag">    1.72    1.72</time>
   <time name="diis">    4.75    4.76</time>
   <time name="orth">    0.53    0.53</time>
   <time name="total">    7.43    7.45</time>
   <dipole>
    <v name="dipole">      0.00000000       0.00000000      -0.56253776 </v>
    <i name="Tr[quadrupol]"> -12387.19696125 </i>
    <i name="Echarged">      0.00000000 </i>
    <i name="Edipol_quadrupol">      0.00000000 </i>
    <i name="Eion">      0.00000000 </i>
   </dipole>
   <energy>
    <i name="e_fr_energy">   -601.52175937 </i>
    <i name="e_wo_entrp">   -601.45594454 </i>
    <i name="e_0_energy">   -601.48885196 </i>
   </energy>
  </scstep>
  <scstep>
   <time name="diag">    1.72    1.72</time>
   <time name="diis">    4.77    4.78</time>
   <time name="orth">    0.53    0.53</time>
   <time name="total">    7.44    7.46</time>
   <dipole>
    <v name="dipole">      0.00000000       0.00000000      -0.52738414 </v>
    <i name="Tr[quadrupol]"> -12388.37441530 </i>
    <i name="Echarged">      0.00000000 </i>
    <i name="Edipol_quadrupol">      0.00000000 </i>
    <i name="Eion">      0.00000000 </i>
   </dipole>
   <energy>
    <i name="e_fr_energy">   -601.73803433 </i>
    <i name="e_wo_entrp">   -601.66823231 </i>
    <i name="e_0_energy">   -601.70313332 </i>
   </energy>
  </scstep>
  <scstep>
   <time name="diag">    1.73    1.74</time>
   <time name="diis">    4.73    4.76</time>
   <time name="orth">    0.53    0.53</time>
   <time name="total">    7.42    7.46</time>
   <dipole>
    <v name="dipole">      0.00000000       0.00000000      -0.49788580 </v>
    <i name="Tr[quadrupol]"> -12389.34935704 </i>
    <i name="Echarged">      0.00000000 </i>
    <i name="Edipol_quadrupol">      0.00000000 </i>
    <i name="Eion">      0.00000000 </i>
   </dipole>
   <energy>
    <i name="e_fr_energy">   -601.84113700 </i>
    <i name="e_wo_entrp">   -601.77011998 </i>
    <i name="e_0_energy">   -601.80562849 </i>
   </energy>
  </scstep>
  <scstep>
   <time name="diag">    1.72    1.72</time>
   <time name="diis">    4.77    4.78</time>
   <time name="orth">    0.53    0.53</time>
   <time name="total">    7.45    7.47</time>
   <dipole>
    <v name="dipole">      0.00000000       0.00000000      -0.50829578 </v>
    <i name="Tr[quadrupol]"> -12390.28156807 </i>
    <i name="Echarged">      0.00000000 </i>
    <i name="Edipol_quadrupol">      0.00000000 </i>
    <i name="Eion">      0.00000000 </i>
   </dipole>
   <energy>
    <i name="e_fr_energy">   -601.94577429 </i>
    <i name="e_wo_entrp">   -601.87786617 </i>
    <i name="e_0_energy">   -601.91182023 </i>
   </energy>
  </scstep>
  <scstep>
   <time name="diag">    1.72    1.72</time>
   <time name="diis">    4.75    4.77</time>
   <time name="orth">    0.53    0.53</time>
   <time name="total">    7.43    7.45</time>
   <dipole>
    <v name="dipole">      0.00000000       0.00000000      -0.43012940 </v>
    <i name="Tr[quadrupol]"> -12390.42953009 </i>
    <i name="Echarged">      0.00000000 </i>
    <i name="Edipol_quadrupol">      0.00000000 </i>
    <i name="Eion">      0.00000000 </i>
   </dipole>
   <energy>
    <i name="e_fr_energy">   -602.00258331 </i>
    <i name="e_wo_entrp">   -601.93148503 </i>
    <i name="e_0_energy">   -601.96703417 </i>
   </energy>
  </scstep>
  <scstep>
   <time name="diag">    1.72    1.72</time>
   <time name="diis">    4.70    4.72</time>
   <time name="orth">    0.53    0.53</time>
   <time name="total">    7.38    7.40</time>
   <dipole>
    <v name="dipole">      0.00000000       0.00000000      -0.39801329 </v>
    <i name="Tr[quadrupol]"> -12390.55216165 </i>
    <i name="Echarged">      0.00000000 </i>
    <i name="Edipol_quadrupol">      0.00000000 </i>
    <i name="Eion">      0.00000000 </i>
   </dipole>
   <energy>
    <i name="e_fr_energy">   -602.06742039 </i>
    <i name="e_wo_entrp">   -601.99742752 </i>
    <i name="e_0_energy">   -602.03242396 </i>
   </energy>
  </scstep>
  <scstep>
   <time name="diag">    1.73    1.74</time>
   <time name="diis">    4.75    4.77</time>
   <time name="orth">    0.53    0.53</time>
   <time name="total">    7.44    7.47</time>
   <dipole>
    <v name="dipole">      0.00000000       0.00000000      -0.31983866 </v>
    <i name="Tr[quadrupol]"> -12390.26602110 </i>
    <i name="Echarged">      0.00000000 </i>
    <i name="Edipol_quadrupol">      0.00000000 </i>
    <i name="Eion">      0.00000000 </i>
   </dipole>
   <energy>
    <i name="e_fr_energy">   -602.10560052 </i>
    <i name="e_wo_entrp">   -602.03443962 </i>
    <i name="e_0_energy">   -602.07002007 </i>
   </energy>
  </scstep>
  <scstep>
   <time name="diag">    1.72    1.72</time>
   <time name="diis">    4.80    4.81</time>
   <time name="orth">    0.53    0.53</time>
   <time name="total">    7.47    7.49</time>
   <dipole>
    <v name="dipole">      0.00000000       0.00000000      -0.28373100 </v>
    <i name="Tr[quadrupol]"> -12389.80392664 </i>
    <i name="Echarged">      0.00000000 </i>
    <i name="Edipol_quadrupol">      0.00000000 </i>
    <i name="Eion">      0.00000000 </i>
   </dipole>
   <energy>
    <i name="e_fr_energy">   -602.13197406 </i>
    <i name="e_wo_entrp">   -602.06091149 </i>
    <i name="e_0_energy">   -602.09644277 </i>
   </energy>
  </scstep>
  <scstep>
   <time name="diag">    1.72    1.72</time>
   <time name="diis">    4.73    4.75</time>
   <time name="orth">    0.53    0.53</time>
   <time name="total">    7.41    7.43</time>
   <dipole>
    <v name="dipole">      0.00000000       0.00000000      -0.25913732 </v>
    <i name="Tr[quadrupol]"> -12389.27919410 </i>
    <i name="Echarged">      0.00000000 </i>
    <i name="Edipol_quadrupol">      0.00000000 </i>
    <i name="Eion">      0.00000000 </i>
   </dipole>
   <energy>
    <i name="e_fr_energy">   -602.14502713 </i>
    <i name="e_wo_entrp">   -602.07380207 </i>
    <i name="e_0_energy">   -602.10941460 </i>
   </energy>
  </scstep>
  <scstep>
   <time name="diag">    1.72    1.72</time>
   <time name="diis">    4.77    4.78</time>
   <time name="orth">    0.53    0.53</time>
   <time name="total">    7.44    7.46</time>
   <dipole>
    <v name="dipole">      0.00000000       0.00000000      -0.22562537 </v>
    <i name="Tr[quadrupol]"> -12388.52347220 </i>
    <i name="Echarged">      0.00000000 </i>
    <i name="Edipol_quadrupol">      0.00000000 </i>
    <i name="Eion">      0.00000000 </i>
   </dipole>
   <energy>
    <i name="e_fr_energy">   -602.17250351 </i>
    <i name="e_wo_entrp">   -602.10141499 </i>
    <i name="e_0_energy">   -602.13695925 </i>
   </energy>
  </scstep>
  <scstep>
   <time name="diag">    1.74    1.74</time>
   <time name="diis">    4.70    4.71</time>
   <time name="orth">    0.53    0.53</time>
   <time name="total">    7.39    7.41</time>
   <dipole>
    <v name="dipole">      0.00000000       0.00000000      -0.07845798 </v>
    <i name="Tr[quadrupol]"> -12387.16065998 </i>
    <i name="Echarged">      0.00000000 </i>
    <i name="Edipol_quadrupol">      0.00000000 </i>
    <i name="Eion">      0.00000000 </i>
   </dipole>
   <energy>
    <i name="e_fr_energy">   -602.24339218 </i>
    <i name="e_wo_entrp">   -602.17039424 </i>
    <i name="e_0_energy">   -602.20689321 </i>
   </energy>
  </scstep>
  <scstep>
   <time name="diag">    1.72    1.72</time>
   <time name="diis">    4.74    4.76</time>
   <time name="orth">    0.53    0.53</time>
   <time name="total">    7.42    7.44</time>
   <dipole>
    <v name="dipole">      0.00000000       0.00000000      -0.05354975 </v>
    <i name="Tr[quadrupol]"> -12386.90077725 </i>
    <i name="Echarged">      0.00000000 </i>
    <i name="Edipol_quadrupol">      0.00000000 </i>
    <i name="Eion">      0.00000000 </i>
   </dipole>
   <energy>
    <i name="e_fr_energy">   -602.26516200 </i>
    <i name="e_wo_entrp">   -602.19208781 </i>
    <i name="e_0_energy">   -602.22862491 </i>
   </energy>
  </scstep>
  <scstep>
   <time name="diag">    1.72    1.72</time>
   <time name="diis">    4.65    4.68</time>
   <time name="orth">    0.53    0.53</time>
   <time name="total">    7.33    7.36</time>
   <dipole>
    <v name="dipole">      0.00000000       0.00000000      -0.03895004 </v>
    <i name="Tr[quadrupol]"> -12386.62316087 </i>
    <i name="Echarged">      0.00000000 </i>
    <i name="Edipol_quadrupol">      0.00000000 </i>
    <i name="Eion">      0.00000000 </i>
   </dipole>
   <energy>
    <i name="e_fr_energy">   -602.28127386 </i>
    <i name="e_wo_entrp">   -602.20813090 </i>
    <i name="e_0_energy">   -602.24470238 </i>
   </energy>
  </scstep>
  <scstep>
   <time name="diag">    1.72    1.72</time>
   <time name="diis">    4.75    4.77</time>
   <time name="orth">    0.53    0.53</time>
   <time name="total">    7.43    7.45</time>
   <dipole>
    <v name="dipole">      0.00000000       0.00000000      -0.00971051 </v>
    <i name="Tr[quadrupol]"> -12386.01930868 </i>
    <i name="Echarged">      0.00000000 </i>
    <i name="Edipol_quadrupol">      0.00000000 </i>
    <i name="Eion">      0.00000000 </i>
   </dipole>
   <energy>
    <i name="e_fr_energy">   -602.31555616 </i>
    <i name="e_wo_entrp">   -602.24245217 </i>
    <i name="e_0_energy">   -602.27900416 </i>
   </energy>
  </scstep>
  <scstep>
   <time name="diag">    1.73    1.74</time>
   <time name="diis">    4.75    4.76</time>
   <time name="orth">    0.53    0.53</time>
   <time name="total">    7.44    7.46</time>
   <dipole>
    <v name="dipole">      0.00000000       0.00000000       0.01698434 </v>
    <i name="Tr[quadrupol]"> -12385.37511325 </i>
    <i name="Echarged">      0.00000000 </i>
    <i name="Edipol_quadrupol">      0.00000000 </i>
    <i name="Eion">      0.00000000 </i>
   </dipole>
   <energy>
    <i name="e_fr_energy">   -602.35199430 </i>
    <i name="e_wo_entrp">   -602.27927329 </i>
    <i name="e_0_energy">   -602.31563379 </i>
   </energy>
  </scstep>
  <scstep>
   <time name="diag">    1.72    1.72</time>
   <time name="diis">    4.74    4.75</time>
   <time name="orth">    0.53    0.53</time>
   <time name="total">    7.41    7.43</time>
   <dipole>
    <v name="dipole">      0.00000000       0.00000000       0.07077195 </v>
    <i name="Tr[quadrupol]"> -12384.22643100 </i>
    <i name="Echarged">      0.00000000 </i>
    <i name="Edipol_quadrupol">      0.00000000 </i>
    <i name="Eion">      0.00000000 </i>
   </dipole>
   <energy>
    <i name="e_fr_energy">   -602.38289836 </i>
    <i name="e_wo_entrp">   -602.31034862 </i>
    <i name="e_0_energy">   -602.34662349 </i>
   </energy>
  </scstep>
  <scstep>
   <time name="diag">    1.72    1.72</time>
   <time name="diis">    4.71    4.73</time>
   <time name="orth">    0.53    0.53</time>
   <time name="total">    7.38    7.41</time>
   <dipole>
    <v name="dipole">      0.00000000       0.00000000       0.06982050 </v>
    <i name="Tr[quadrupol]"> -12384.19861935 </i>
    <i name="Echarged">      0.00000000 </i>
[...]
       <r>   -11.6538     0.0000    64.0000 </r>
       <r>   -11.5508     0.0000    64.0000 </r>
       <r>   -11.4477     0.0000    64.0000 </r>
       <r>   -11.3447     0.0000    64.0000 </r>
       <r>   -11.2417     0.0000    64.0000 </r>
       <r>   -11.1386     0.0000    64.0000 </r>
       <r>   -11.0356     0.0000    64.0000 </r>
       <r>   -10.9326     0.0000    64.0000 </r>
       <r>   -10.8296     0.0000    64.0000 </r>
       <r>   -10.7265     0.0000    64.0000 </r>
       <r>   -10.6235     0.0000    64.0000 </r>
       <r>   -10.5205     0.0000    64.0000 </r>
       <r>   -10.4174     0.0000    64.0000 </r>
       <r>   -10.3144     0.0000    64.0000 </r>
       <r>   -10.2114     0.0000    64.0000 </r>
       <r>   -10.1084     0.0000    64.0000 </r>
       <r>   -10.0053     0.0000    64.0000 </r>
       <r>    -9.9023     0.0000    64.0000 </r>
       <r>    -9.7993     0.0000    64.0000 </r>
       <r>    -9.6963     0.0000    64.0000 </r>
       <r>    -9.5932     0.0469    64.0048 </r>
       <r>    -9.4902     1.8803    64.1986 </r>
       <r>    -9.3872     5.0954    64.7235 </r>
       <r>    -9.2841     2.8971    65.0220 </r>
       <r>    -9.1811     8.1057    65.8571 </r>
       <r>    -9.0781    14.3546    67.3361 </r>
       <r>    -8.9751     7.9595    68.1561 </r>
       <r>    -8.8720     9.8511    69.1710 </r>
       <r>    -8.7690     7.8357    69.9783 </r>
       <r>    -8.6660    10.0173    71.0104 </r>
       <r>    -8.5629    21.4837    73.2238 </r>
       <r>    -8.4599    14.7124    74.7396 </r>
       <r>    -8.3569    18.1326    76.6078 </r>
       <r>    -8.2539    32.6815    79.9749 </r>
       <r>    -8.1508    28.9981    82.9626 </r>
       <r>    -8.0478    30.5870    86.1139 </r>
       <r>    -7.9448    47.3717    90.9945 </r>
       <r>    -7.8417    41.6801    95.2888 </r>
       <r>    -7.7387    59.4650   101.4153 </r>
       <r>    -7.6357    54.2607   107.0057 </r>
       <r>    -7.5327    40.6002   111.1887 </r>
       <r>    -7.4296    37.1845   115.0198 </r>
       <r>    -7.3266    25.5348   117.6506 </r>
       <r>    -7.2236    25.0153   120.2279 </r>
       <r>    -7.1205    23.3488   122.6334 </r>
       <r>    -7.0175    28.3395   125.5532 </r>
       <r>    -6.9145    21.8355   127.8029 </r>
       <r>    -6.8115    28.1257   130.7006 </r>
       <r>    -6.7084    22.8776   133.0577 </r>
       <r>    -6.6054    20.3337   135.1526 </r>
       <r>    -6.5024    14.9192   136.6897 </r>
       <r>    -6.3993    19.8379   138.7336 </r>
       <r>    -6.2963    30.6544   141.8919 </r>
       <r>    -6.1933    28.6604   144.8447 </r>
       <r>    -6.0903    30.6004   147.9974 </r>
       <r>    -5.9872    28.9100   150.9760 </r>
       <r>    -5.8842    32.4574   154.3200 </r>
       <r>    -5.7812    32.9817   157.7180 </r>
       <r>    -5.6781    44.8161   162.3354 </r>
       <r>    -5.5751    45.1783   166.9900 </r>
       <r>    -5.4721    40.1503   171.1266 </r>
       <r>    -5.3691    33.4474   174.5727 </r>
       <r>    -5.2660    36.5681   178.3402 </r>
       <r>    -5.1630    38.5985   182.3169 </r>
       <r>    -5.0600    46.5901   187.1170 </r>
       <r>    -4.9569    30.6070   190.2704 </r>
       <r>    -4.8539    37.7615   194.1609 </r>
       <r>    -4.7509    31.4459   197.4008 </r>
       <r>    -4.6479    40.7076   201.5948 </r>
       <r>    -4.5448    38.4521   205.5564 </r>
       <r>    -4.4418    27.7629   208.4168 </r>
       <r>    -4.3388    28.2470   211.3271 </r>
       <r>    -4.2357    25.7330   213.9783 </r>
       <r>    -4.1327    26.9199   216.7518 </r>
       <r>    -4.0297    22.5135   219.0713 </r>
       <r>    -3.9267    29.0541   222.0647 </r>
       <r>    -3.8236    30.7603   225.2339 </r>
       <r>    -3.7206    23.1856   227.6227 </r>
       <r>    -3.6176    30.0718   230.7209 </r>
       <r>    -3.5145    24.8892   233.2852 </r>
       <r>    -3.4115    21.3423   235.4841 </r>
       <r>    -3.3085    20.2044   237.5657 </r>
       <r>    -3.2055    27.1936   240.3674 </r>
       <r>    -3.1024    38.5962   244.3439 </r>
       <r>    -2.9994    33.2666   247.7713 </r>
       <r>    -2.8964    21.7477   250.0120 </r>
       <r>    -2.7934    17.1285   251.7767 </r>
       <r>    -2.6903    27.0739   254.5661 </r>
       <r>    -2.5873    11.9635   255.7987 </r>
       <r>    -2.4843    14.3253   257.2746 </r>
       <r>    -2.3812    18.6056   259.1915 </r>
       <r>    -2.2782    27.4768   262.0224 </r>
       <r>    -2.1752    34.9194   265.6201 </r>
       <r>    -2.0722    41.3140   269.8766 </r>
       <r>    -1.9691    55.6414   275.6092 </r>
       <r>    -1.8661    54.9287   281.2684 </r>
       <r>    -1.7631    34.4619   284.8190 </r>
       <r>    -1.6600    43.8324   289.3349 </r>
       <r>    -1.5570    42.6141   293.7254 </r>
       <r>    -1.4540    33.0368   297.1291 </r>
       <r>    -1.3510    42.8987   301.5489 </r>
       <r>    -1.2479    31.5183   304.7962 </r>
       <r>    -1.1449    25.8104   307.4554 </r>
       <r>    -1.0419    21.6506   309.6860 </r>
       <r>    -0.9388    28.3888   312.6109 </r>
       <r>    -0.8358    27.1208   315.4051 </r>
       <r>    -0.7328    23.7985   317.8570 </r>
       <r>    -0.6298    26.0536   320.5413 </r>
       <r>    -0.5267    30.0794   323.6403 </r>
       <r>    -0.4237    27.7390   326.4982 </r>
       <r>    -0.3207    27.3990   329.3211 </r>
       <r>    -0.2176    27.9835   332.2042 </r>
       <r>    -0.1146    36.6626   335.9814 </r>
       <r>    -0.0116    37.1373   339.8076 </r>
       <r>     0.0914    28.0312   342.6956 </r>
       <r>     0.1945    29.2351   345.7077 </r>
       <r>     0.2975    29.0802   348.7038 </r>
       <r>     0.4005    29.3365   351.7263 </r>
       <r>     0.5036    20.6726   353.8561 </r>
       <r>     0.6066     8.9772   354.7810 </r>
       <r>     0.7096    15.0607   356.3327 </r>
       <r>     0.8126    12.9552   357.6675 </r>
       <r>     0.9157     5.8874   358.2740 </r>
       <r>     1.0187     2.2435   358.5052 </r>
       <r>     1.1217     6.1227   359.1360 </r>
       <r>     1.2248    14.3093   360.6103 </r>
       <r>     1.3278    14.5238   362.1066 </r>
       <r>     1.4308    10.6728   363.2062 </r>
       <r>     1.5338     8.5423   364.0863 </r>
       <r>     1.6369    13.4569   365.4728 </r>
       <r>     1.7399    10.8858   366.5943 </r>
       <r>     1.8429     9.5862   367.5819 </r>
       <r>     1.9460    19.0804   369.5478 </r>
       <r>     2.0490    13.5203   370.9407 </r>
       <r>     2.1520    15.4273   372.5302 </r>
       <r>     2.2550    28.6373   375.4807 </r>
       <r>     2.3581    19.8498   377.5257 </r>
       <r>     2.4611    17.4391   379.3225 </r>
       <r>     2.5641    10.6264   380.4173 </r>
       <r>     2.6672    18.1760   382.2899 </r>
       <r>     2.7702    23.5899   384.7204 </r>
       <r>     2.8732    15.7819   386.3463 </r>
       <r>     2.9762    13.9407   387.7826 </r>
       <r>     3.0793    14.4848   389.2750 </r>
       <r>     3.1823    20.8616   391.4243 </r>
       <r>     3.2853    23.0673   393.8009 </r>
       <r>     3.3883    21.9619   396.0636 </r>
       <r>     3.4914    21.7207   398.3014 </r>
       <r>     3.5944    24.2593   400.8008 </r>
       <r>     3.6974    24.1313   403.2871 </r>
       <r>     3.8005    23.6952   405.7283 </r>
       <r>     3.9035    15.4146   407.3165 </r>
       <r>     4.0065    13.8086   408.7391 </r>
       <r>     4.1095    11.5059   409.9246 </r>
       <r>     4.2126     2.0112   410.1318 </r>
       <r>     4.3156     7.9207   410.9478 </r>
       <r>     4.4186     0.6010   411.0098 </r>
       <r>     4.5217     2.8438   411.3028 </r>
       <r>     4.6247     6.8514   412.0086 </r>
       <r>     4.7277     4.6039   412.4830 </r>
       <r>     4.8307     7.4762   413.2532 </r>
       <r>     4.9338     6.1280   413.8846 </r>
       <r>     5.0368     3.0914   414.2031 </r>
       <r>     5.1398     1.5311   414.3608 </r>
       <r>     5.2429     5.9668   414.9756 </r>
       <r>     5.3459     5.9924   415.5930 </r>
       <r>     5.4489     3.7192   415.9762 </r>
       <r>     5.5519     4.4937   416.4391 </r>
       <r>     5.6550     2.2503   416.6710 </r>
       <r>     5.7580     7.1190   417.4044 </r>
       <r>     5.8610     6.6789   418.0926 </r>
       <r>     5.9641     6.6450   418.7772 </r>
       <r>     6.0671     7.8931   419.5904 </r>
       <r>     6.1701     7.0949   420.3214 </r>
       <r>     6.2731    10.9278   421.4473 </r>
       <r>     6.3762    12.1104   422.6950 </r>
       <r>     6.4792     5.2433   423.2352 </r>
       <r>     6.5822     7.9038   424.0495 </r>
       <r>     6.6853    10.2579   425.1064 </r>
       <r>     6.7883    10.6039   426.1989 </r>
       <r>     6.8913     7.3446   426.9556 </r>
       <r>     6.9943     6.1173   427.5858 </r>
       <r>     7.0974     3.9888   427.9968 </r>
       <r>     7.2004     0.0314   428.0000 </r>
       <r>     7.3034     0.0000   428.0000 </r>
       <r>     7.4065     0.0000   428.0000 </r>
       <r>     7.5095     0.0000   428.0000 </r>
       <r>     7.6125     0.0000   428.0000 </r>
       <r>     7.7155     0.0000   428.0000 </r>
       <r>     7.8186     0.0000   428.0000 </r>
       <r>     7.9216     0.0000   428.0000 </r>
       <r>     8.0246     0.0000   428.0000 </r>
       <r>     8.1277     0.0000   428.0000 </r>
       <r>     8.2307     0.0000   428.0000 </r>
       <r>     8.3337     0.0000   428.0000 </r>
       <r>     8.4367     0.0000   428.0000 </r>
      </set>
     </set>
    </array>
   </total>
  </dos>
 </calculation>
 <structure name="finalpos" >
  <crystal>
   <varray name="basis" >
    <v>      12.80853200       0.00000000       0.00000000 </v>
    <v>       0.00000000       6.47024300       0.00000000 </v>
    <v>       0.00000000       0.00000000      25.88097200 </v>
   </varray>
   <i name="volume">   2144.86781344 </i>
   <varray name="rec_basis" >
    <v>       0.07807296       0.00000000       0.00000000 </v>
    <v>       0.00000000       0.15455370       0.00000000 </v>
    <v>       0.00000000       0.00000000       0.03863843 </v>
   </varray>
  </crystal>
  <varray name="positions" >
   <v>       0.12500000       0.50000000       0.18750000 </v>
   <v>       0.37500000       0.50000000       0.18750000 </v>
   <v>       0.12500000       0.00000000       0.06250000 </v>
   <v>       0.37500000       0.00000000       0.06250000 </v>
   <v>       0.00000000       0.50000000       0.06250000 </v>
   <v>       0.25000000       0.50000000       0.06250000 </v>
   <v>       0.00000000       0.00000000       0.18750000 </v>
   <v>       0.25000000       0.00000000       0.18750000 </v>
   <v>       0.12157453       0.50000000       0.44180459 </v>
   <v>       0.37492181       0.50000000       0.43612906 </v>
   <v>       0.12503410      -0.00000000       0.31200294 </v>
   <v>       0.37514177      -0.00000000       0.31236607 </v>
   <v>       0.00219852       0.50000000       0.31391360 </v>
   <v>       0.25045382       0.50000000       0.31229305 </v>
   <v>      -0.00607857      -0.00000000       0.43550563 </v>
   <v>       0.24904123      -0.00000000       0.43533617 </v>
   <v>       0.00000000       0.50000000       0.13961000 </v>
   <v>       0.25000000       0.50000000       0.13961000 </v>
   <v>       0.00000000       0.00000000       0.01461000 </v>
   <v>       0.25000000       0.00000000       0.01461000 </v>
   <v>       0.12500000       0.80844000       0.18750000 </v>
   <v>       0.37500000       0.80844000       0.18750000 </v>
   <v>       0.12500000       0.30844000       0.06250000 </v>
   <v>       0.37500000       0.30844000       0.06250000 </v>
   <v>       0.00000000       0.50000000       0.23539000 </v>
   <v>       0.25000000       0.50000000       0.23539000 </v>
   <v>       0.00000000       0.00000000       0.11039000 </v>
   <v>       0.25000000       0.00000000       0.11039000 </v>
   <v>       0.12500000       0.19156000       0.18750000 </v>
   <v>       0.37500000       0.19156000       0.18750000 </v>
   <v>       0.12500000       0.69156000       0.06250000 </v>
   <v>       0.37500000       0.69156000       0.06250000 </v>
   <v>       0.01757251       0.50000000       0.38777759 </v>
   <v>       0.24863021       0.50000000       0.38869364 </v>
   <v>      -0.00019267      -0.00000000       0.26429436 </v>
   <v>       0.25038910      -0.00000000       0.26432667 </v>
   <v>       0.12338341       0.81272145       0.44154953 </v>
   <v>       0.37471480       0.81002072       0.44006312 </v>
   <v>       0.12618104       0.30808790       0.31040399 </v>
   <v>       0.37530313       0.30823498       0.31280712 </v>
   <v>       0.04027957       0.50000000       0.49788990 </v>
   <v>       0.25236731       0.50000000       0.48158192 </v>
   <v>      -0.00003084      -0.00000000       0.36007954 </v>
   <v>       0.24969417      -0.00000000       0.35971721 </v>
   <v>       0.12338341       0.18727855       0.44154953 </v>
   <v>       0.37471480       0.18997928       0.44006312 </v>
   <v>       0.12618104       0.69191210       0.31040399 </v>
   <v>       0.37530313       0.69176502       0.31280712 </v>
   <v>       0.62500000       0.50000000       0.18750000 </v>
   <v>       0.87500000       0.50000000       0.18750000 </v>
   <v>       0.62500000       0.00000000       0.06250000 </v>
   <v>       0.87500000       0.00000000       0.06250000 </v>
   <v>       0.50000000       0.50000000       0.06250000 </v>
   <v>       0.75000000       0.50000000       0.06250000 </v>
   <v>       0.50000000       0.00000000       0.18750000 </v>
   <v>       0.75000000       0.00000000       0.18750000 </v>
   <v>       0.62825962       0.50000000       0.44184969 </v>
   <v>       0.62508961      -0.00000000       0.31212224 </v>
   <v>       0.87511141      -0.00000000       0.31221307 </v>
   <v>       0.49981299       0.50000000       0.31233385 </v>
   <v>       0.74823285       0.50000000       0.31405093 </v>
   <v>       0.50045917      -0.00000000       0.43539549 </v>
   <v>       0.75560239      -0.00000000       0.43562710 </v>
   <v>       0.50000000       0.50000000       0.13961000 </v>
   <v>       0.75000000       0.50000000       0.13961000 </v>
   <v>       0.50000000       0.00000000       0.01461000 </v>
   <v>       0.75000000       0.00000000       0.01461000 </v>
   <v>       0.62500000       0.80844000       0.18750000 </v>
   <v>       0.87500000       0.80844000       0.18750000 </v>
   <v>       0.62500000       0.30844000       0.06250000 </v>
   <v>       0.87500000       0.30844000       0.06250000 </v>
   <v>       0.50000000       0.50000000       0.23539000 </v>
   <v>       0.75000000       0.50000000       0.23539000 </v>
   <v>       0.50000000       0.00000000       0.11039000 </v>
   <v>       0.75000000       0.00000000       0.11039000 </v>
   <v>       0.62500000       0.19156000       0.18750000 </v>
   <v>       0.87500000       0.19156000       0.18750000 </v>
   <v>       0.62500000       0.69156000       0.06250000 </v>
   <v>       0.87500000       0.69156000       0.06250000 </v>
   <v>       0.50139336       0.50000000       0.38881526 </v>
   <v>       0.73329599       0.50000000       0.38795658 </v>
   <v>       0.49987517      -0.00000000       0.26428291 </v>
   <v>       0.75020421      -0.00000000       0.26441306 </v>
   <v>       0.62630900       0.81264638       0.44143555 </v>
   <v>       0.87481824       0.81592769       0.44273273 </v>
   <v>       0.62404808       0.30807533       0.31065388 </v>
   <v>       0.87532760       0.30939206       0.31370372 </v>
   <v>       0.49741284       0.50000000       0.48173346 </v>
   <v>       0.70938485       0.50000000       0.49804426 </v>
   <v>       0.50033394      -0.00000000       0.35976925 </v>
   <v>       0.75026658      -0.00000000       0.36023930 </v>
   <v>       0.62630900       0.18735362       0.44143555 </v>
   <v>       0.87481824       0.18407231       0.44273273 </v>
   <v>       0.62404808       0.69192467       0.31065388 </v>
   <v>       0.87532760       0.69060794       0.31370372 </v>
  </varray>
  <varray name="selective"  type="logical" >
   <v type="logical" >  F  F  F </v>
   <v type="logical" >  F  F  F </v>
   <v type="logical" >  F  F  F </v>
   <v type="logical" >  F  F  F </v>
   <v type="logical" >  F  F  F </v>
   <v type="logical" >  F  F  F </v>
   <v type="logical" >  F  F  F </v>
   <v type="logical" >  F  F  F </v>
   <v type="logical" >  T  T  T </v>
   <v type="logical" >  T  T  T </v>
   <v type="logical" >  T  T  T </v>
   <v type="logical" >  T  T  T </v>
   <v type="logical" >  T  T  T </v>
   <v type="logical" >  T  T  T </v>
   <v type="logical" >  T  T  T </v>
   <v type="logical" >  T  T  T </v>
   <v type="logical" >  F  F  F </v>
   <v type="logical" >  F  F  F </v>
   <v type="logical" >  F  F  F </v>
   <v type="logical" >  F  F  F </v>
   <v type="logical" >  F  F  F </v>
   <v type="logical" >  F  F  F </v>
   <v type="logical" >  F  F  F </v>
   <v type="logical" >  F  F  F </v>
   <v type="logical" >  F  F  F </v>
   <v type="logical" >  F  F  F </v>
   <v type="logical" >  F  F  F </v>
   <v type="logical" >  F  F  F </v>
   <v type="logical" >  F  F  F </v>
   <v type="logical" >  F  F  F </v>
   <v type="logical" >  F  F  F </v>
   <v type="logical" >  F  F  F </v>
   <v type="logical" >  T  T  T </v>
   <v type="logical" >  T  T  T </v>
   <v type="logical" >  T  T  T </v>
   <v type="logical" >  T  T  T </v>
   <v type="logical" >  T  T  T </v>
   <v type="logical" >  T  T  T </v>
   <v type="logical" >  T  T  T </v>
   <v type="logical" >  T  T  T </v>
   <v type="logical" >  T  T  T </v>
   <v type="logical" >  T  T  T </v>
   <v type="logical" >  T  T  T </v>
   <v type="logical" >  T  T  T </v>
   <v type="logical" >  T  T  T </v>
   <v type="logical" >  T  T  T </v>
   <v type="logical" >  T  T  T </v>
   <v type="logical" >  T  T  T </v>
   <v type="logical" >  F  F  F </v>
   <v type="logical" >  F  F  F </v>
   <v type="logical" >  F  F  F </v>
   <v type="logical" >  F  F  F </v>
   <v type="logical" >  F  F  F </v>
   <v type="logical" >  F  F  F </v>
   <v type="logical" >  F  F  F </v>
   <v type="logical" >  F  F  F </v>
   <v type="logical" >  T  T  T </v>
   <v type="logical" >  T  T  T </v>
   <v type="logical" >  T  T  T </v>
   <v type="logical" >  T  T  T </v>
   <v type="logical" >  T  T  T </v>
   <v type="logical" >  T  T  T </v>
   <v type="logical" >  T  T  T </v>
   <v type="logical" >  F  F  F </v>
   <v type="logical" >  F  F  F </v>
   <v type="logical" >  F  F  F </v>
   <v type="logical" >  F  F  F </v>
   <v type="logical" >  F  F  F </v>
   <v type="logical" >  F  F  F </v>
   <v type="logical" >  F  F  F </v>
   <v type="logical" >  F  F  F </v>
   <v type="logical" >  F  F  F </v>
   <v type="logical" >  F  F  F </v>
   <v type="logical" >  F  F  F </v>
   <v type="logical" >  F  F  F </v>
   <v type="logical" >  F  F  F </v>
   <v type="logical" >  F  F  F </v>
   <v type="logical" >  F  F  F </v>
   <v type="logical" >  F  F  F </v>
   <v type="logical" >  T  T  T </v>
   <v type="logical" >  T  T  T </v>
   <v type="logical" >  T  T  T </v>
   <v type="logical" >  T  T  T </v>
   <v type="logical" >  T  T  T </v>
   <v type="logical" >  T  T  T </v>
   <v type="logical" >  T  T  T </v>
   <v type="logical" >  T  T  T </v>
   <v type="logical" >  T  T  T </v>
   <v type="logical" >  T  T  T </v>
   <v type="logical" >  T  T  T </v>
   <v type="logical" >  T  T  T </v>
   <v type="logical" >  T  T  T </v>
   <v type="logical" >  T  T  T </v>
   <v type="logical" >  T  T  T </v>
   <v type="logical" >  T  T  T </v>
  </varray>
  <nose>
   <v>      -3.00000000       0.00000000       0.00010000       0.00010000 </v>
  </nose>
 </structure>
</modeling>
