 vasp.5.4.4.18Apr17-6-g9f103f2a35 (build Feb 25 2019 10:51:38) complex          
  
 executed on             LinuxIFC date 2023.03.14  11:53:15
 running on   40 total cores
 distrk:  each k-point on   40 cores,    1 groups
 distr:  one band on NCORES_PER_BAND=   1 cores,   40 groups


--------------------------------------------------------------------------------------------------------


 INCAR:
 POTCAR:    PAW_PBE Ir 06Sep2000                  
 POTCAR:    PAW_PBE O 08Apr2002                   
 POTCAR:    PAW_PBE Ir 06Sep2000                  
 POTCAR:    PAW_PBE O 08Apr2002                   

 ----------------------------------------------------------------------------- 
|                                                                             |
|           W    W    AA    RRRRR   N    N  II  N    N   GGGG   !!!           |
|           W    W   A  A   R    R  NN   N  II  NN   N  G    G  !!!           |
|           W    W  A    A  R    R  N N  N  II  N N  N  G       !!!           |
|           W WW W  AAAAAA  RRRRR   N  N N  II  N  N N  G  GGG   !            |
|           WW  WW  A    A  R   R   N   NN  II  N   NN  G    G                |
|           W    W  A    A  R    R  N    N  II  N    N   GGGG   !!!           |
|                                                                             |
|      For optimal performance we recommend to set                            |
|        NCORE= 4 - approx SQRT( number of cores)                             |
|      NCORE specifies how many cores store one orbital (NPAR=cpu/NCORE).     |
|      This setting can  greatly improve the performance of VASP for DFT.     |
|      The default,   NCORE=1            might be grossly inefficient         |
|      on modern multi-core architectures or massively parallel machines.     |
|      Do your own testing !!!!                                               |
|      Unfortunately you need to use the default for GW and RPA calculations. |
|      (for HF NCORE is supported but not extensively tested yet)             |
|                                                                             |
 ----------------------------------------------------------------------------- 

 POTCAR:    PAW_PBE Ir 06Sep2000                  
   VRHFIN =Ir: s1d8                                                             
   LEXCH  = PE                                                                  
   EATOM  =   560.1833 eV,   41.1723 Ry                                         
                                                                                
   TITEL  = PAW_PBE Ir 06Sep2000                                                
   LULTRA =        F    use ultrasoft PP ?                                      
   IUNSCR =        1    unscreen: 0-lin 1-nonlin 2-no                           
   RPACOR =    2.250    partial core radius                                     
   POMASS =  192.220; ZVAL   =    9.000    mass and valenz                      
   RCORE  =    2.600    outmost cutoff radius                                   
   RWIGS  =    2.690; RWIGS  =    1.423    wigner-seitz radius (au A)           
   ENMAX  =  210.864; ENMIN  =  158.148 eV                                      
   RCLOC  =    1.857    cutoff for local pot                                    
   LCOR   =        T    correct aug charges                                     
   LPAW   =        T    paw PP                                                  
   EAUG   =  318.962                                                            
   DEXC   =    0.000                                                            
   RMAX   =    2.667    core radius for proj-oper                               
   RAUG   =    1.300    factor for augmentation sphere                          
   RDEP   =    2.748    radius for radial grids                                 
   RDEPT  =    2.300    core radius for aug-charge                              
                                                                                
   Atomic configuration                                                         
   16 entries                                                                   
     n  l   j            E        occ.                                          
     1  0  0.50    -76100.0449   2.0000                                         
     2  0  0.50    -13308.1683   2.0000                                         
     2  1  1.50    -11558.0021   6.0000                                         
     3  0  0.50     -3110.7274   2.0000                                         
     3  1  1.50     -2599.2109   6.0000                                         
     3  2  2.50     -2037.1515  10.0000                                         
     4  0  0.50      -661.6001   2.0000                                         
     4  1  1.50      -493.8981   6.0000                                         
     4  2  2.50      -288.1909  10.0000                                         
     4  3  3.50       -59.5718  14.0000                                         
     5  0  0.50       -95.3879   2.0000                                         
     5  1  1.50       -52.2747   6.0000                                         
     5  2  2.50        -5.4180   8.0000                                         
     6  0  0.50        -5.5479   1.0000                                         
     6  1  1.50        -6.8029   0.0000                                         
     5  3  2.50        -1.3606   0.0000                                         
   Description                                                                  
     l       E           TYP  RCUT    TYP  RCUT                                 
     2     -5.4179967     23  2.600                                             
     2     -6.7785793     23  2.600                                             
     0     -5.5478636     23  2.600                                             
     0      2.2542272     23  2.600                                             
     1     -2.7211652     23  2.600                                             
     1     20.4087390     23  2.600                                             
  local pseudopotential read in
  partial core-charges read in
  partial kinetic energy density read in
  atomic valenz-charges read in
  non local Contribution for L=           2  read in
    real space projection operators read in
  non local Contribution for L=           2  read in
    real space projection operators read in
  non local Contribution for L=           0  read in
    real space projection operators read in
  non local Contribution for L=           0  read in
    real space projection operators read in
  non local Contribution for L=           1  read in
    real space projection operators read in
  non local Contribution for L=           1  read in
    real space projection operators read in
    PAW grid and wavefunctions read in
 
   number of l-projection  operators is LMAX  =           6
   number of lm-projection operators is LMMAX =          18
 
 POTCAR:    PAW_PBE O 08Apr2002                   
   VRHFIN =O: s2p4                                                              
   LEXCH  = PE                                                                  
   EATOM  =   432.3788 eV,   31.7789 Ry                                         
                                                                                
   TITEL  = PAW_PBE O 08Apr2002                                                 
   LULTRA =        F    use ultrasoft PP ?                                      
   IUNSCR =        1    unscreen: 0-lin 1-nonlin 2-no                           
   RPACOR =    1.200    partial core radius                                     
   POMASS =   16.000; ZVAL   =    6.000    mass and valenz                      
   RCORE  =    1.520    outmost cutoff radius                                   
   RWIGS  =    1.550; RWIGS  =    0.820    wigner-seitz radius (au A)           
   ENMAX  =  400.000; ENMIN  =  300.000 eV                                      
   ICORE  =        2    local potential                                         
   LCOR   =        T    correct aug charges                                     
   LPAW   =        T    paw PP                                                  
   EAUG   =  605.392                                                            
   DEXC   =    0.000                                                            
   RMAX   =    1.553    core radius for proj-oper                               
   RAUG   =    1.300    factor for augmentation sphere                          
   RDEP   =    1.550    radius for radial grids                                 
   RDEPT  =    1.329    core radius for aug-charge                              
                                                                                
   Atomic configuration                                                         
    4 entries                                                                   
     n  l   j            E        occ.                                          
     1  0  0.50      -514.6923   2.0000                                         
     2  0  0.50       -23.9615   2.0000                                         
     2  1  0.50        -9.0305   4.0000                                         
     3  2  1.50        -9.5241   0.0000                                         
   Description                                                                  
     l       E           TYP  RCUT    TYP  RCUT                                 
     0    -23.9615318     23  1.200                                             
     0     -9.5240782     23  1.200                                             
     1     -9.0304911     23  1.520                                             
     1      8.1634956     23  1.520                                             
     2     -9.5240782      7  1.500                                             
  local pseudopotential read in
  partial core-charges read in
  partial kinetic energy density read in
  kinetic energy density of atom read in
  atomic valenz-charges read in
  non local Contribution for L=           0  read in
    real space projection operators read in
  non local Contribution for L=           0  read in
    real space projection operators read in
  non local Contribution for L=           1  read in
    real space projection operators read in
  non local Contribution for L=           1  read in
    real space projection operators read in
    PAW grid and wavefunctions read in
 
   number of l-projection  operators is LMAX  =           4
   number of lm-projection operators is LMMAX =           8
 
 POTCAR:    PAW_PBE Ir 06Sep2000                  
   VRHFIN =Ir: s1d8                                                             
   LEXCH  = PE                                                                  
   EATOM  =   560.1833 eV,   41.1723 Ry                                         
                                                                                
   TITEL  = PAW_PBE Ir 06Sep2000                                                
   LULTRA =        F    use ultrasoft PP ?                                      
   IUNSCR =        1    unscreen: 0-lin 1-nonlin 2-no                           
   RPACOR =    2.250    partial core radius                                     
   POMASS =  192.220; ZVAL   =    9.000    mass and valenz                      
   RCORE  =    2.600    outmost cutoff radius                                   
   RWIGS  =    2.690; RWIGS  =    1.423    wigner-seitz radius (au A)           
   ENMAX  =  210.864; ENMIN  =  158.148 eV                                      
   RCLOC  =    1.857    cutoff for local pot                                    
   LCOR   =        T    correct aug charges                                     
   LPAW   =        T    paw PP                                                  
   EAUG   =  318.962                                                            
   DEXC   =    0.000                                                            
   RMAX   =    2.667    core radius for proj-oper                               
   RAUG   =    1.300    factor for augmentation sphere                          
   RDEP   =    2.748    radius for radial grids                                 
   RDEPT  =    2.300    core radius for aug-charge                              
                                                                                
   Atomic configuration                                                         
   16 entries                                                                   
     n  l   j            E        occ.                                          
     1  0  0.50    -76100.0449   2.0000                                         
     2  0  0.50    -13308.1683   2.0000                                         
     2  1  1.50    -11558.0021   6.0000                                         
     3  0  0.50     -3110.7274   2.0000                                         
     3  1  1.50     -2599.2109   6.0000                                         
     3  2  2.50     -2037.1515  10.0000                                         
     4  0  0.50      -661.6001   2.0000                                         
     4  1  1.50      -493.8981   6.0000                                         
     4  2  2.50      -288.1909  10.0000                                         
     4  3  3.50       -59.5718  14.0000                                         
     5  0  0.50       -95.3879   2.0000                                         
     5  1  1.50       -52.2747   6.0000                                         
     5  2  2.50        -5.4180   8.0000                                         
     6  0  0.50        -5.5479   1.0000                                         
     6  1  1.50        -6.8029   0.0000                                         
     5  3  2.50        -1.3606   0.0000                                         
   Description                                                                  
     l       E           TYP  RCUT    TYP  RCUT                                 
     2     -5.4179967     23  2.600                                             
     2     -6.7785793     23  2.600                                             
     0     -5.5478636     23  2.600                                             
     0      2.2542272     23  2.600                                             
     1     -2.7211652     23  2.600                                             
     1     20.4087390     23  2.600                                             
  local pseudopotential read in
  partial core-charges read in
  partial kinetic energy density read in
  atomic valenz-charges read in
  non local Contribution for L=           2  read in
    real space projection operators read in
  non local Contribution for L=           2  read in
    real space projection operators read in
  non local Contribution for L=           0  read in
    real space projection operators read in
  non local Contribution for L=           0  read in
    real space projection operators read in
  non local Contribution for L=           1  read in
    real space projection operators read in
  non local Contribution for L=           1  read in
    real space projection operators read in
    PAW grid and wavefunctions read in
 
   number of l-projection  operators is LMAX  =           6
   number of lm-projection operators is LMMAX =          18
 
 POTCAR:    PAW_PBE O 08Apr2002                   
   VRHFIN =O: s2p4                                                              
   LEXCH  = PE                                                                  
   EATOM  =   432.3788 eV,   31.7789 Ry                                         
                                                                                
   TITEL  = PAW_PBE O 08Apr2002                                                 
   LULTRA =        F    use ultrasoft PP ?                                      
   IUNSCR =        1    unscreen: 0-lin 1-nonlin 2-no                           
   RPACOR =    1.200    partial core radius                                     
   POMASS =   16.000; ZVAL   =    6.000    mass and valenz                      
   RCORE  =    1.520    outmost cutoff radius                                   
   RWIGS  =    1.550; RWIGS  =    0.820    wigner-seitz radius (au A)           
   ENMAX  =  400.000; ENMIN  =  300.000 eV                                      
   ICORE  =        2    local potential                                         
   LCOR   =        T    correct aug charges                                     
   LPAW   =        T    paw PP                                                  
   EAUG   =  605.392                                                            
   DEXC   =    0.000                                                            
   RMAX   =    1.553    core radius for proj-oper                               
   RAUG   =    1.300    factor for augmentation sphere                          
   RDEP   =    1.550    radius for radial grids                                 
   RDEPT  =    1.329    core radius for aug-charge                              
                                                                                
   Atomic configuration                                                         
    4 entries                                                                   
     n  l   j            E        occ.                                          
     1  0  0.50      -514.6923   2.0000                                         
     2  0  0.50       -23.9615   2.0000                                         
     2  1  0.50        -9.0305   4.0000                                         
     3  2  1.50        -9.5241   0.0000                                         
   Description                                                                  
     l       E           TYP  RCUT    TYP  RCUT                                 
     0    -23.9615318     23  1.200                                             
     0     -9.5240782     23  1.200                                             
     1     -9.0304911     23  1.520                                             
     1      8.1634956     23  1.520                                             
     2     -9.5240782      7  1.500                                             
  local pseudopotential read in
  partial core-charges read in
  partial kinetic energy density read in
  kinetic energy density of atom read in
  atomic valenz-charges read in
  non local Contribution for L=           0  read in
    real space projection operators read in
  non local Contribution for L=           0  read in
    real space projection operators read in
  non local Contribution for L=           1  read in
    real space projection operators read in
  non local Contribution for L=           1  read in
    real space projection operators read in
    PAW grid and wavefunctions read in
 
   number of l-projection  operators is LMAX  =           4
   number of lm-projection operators is LMMAX =           8
 
 Optimization of the real space projectors (new method)

 maximal supplied QI-value         = 14.36
 optimisation between [QCUT,QGAM] = [ 11.35, 22.84] = [ 36.05,146.02] Ry 
 Optimized for a Real-space Cutoff    1.52 Angstroem

   l    n(q)    QCUT    max X(q) W(low)/X(q) W(high)/X(q)  e(spline) 
   2      9    11.346   134.116    0.47E-03    0.13E-03    0.92E-06
   2      9    11.346   130.192    0.47E-03    0.13E-03    0.92E-06
   0     10    11.346    60.310    0.74E-04    0.13E-03    0.69E-06
   0     10    11.346    39.218    0.68E-04    0.12E-03    0.65E-06
   1     10    11.346    18.439    0.15E-03    0.34E-04    0.20E-06
   1     10    11.346    12.760    0.12E-03    0.31E-04    0.16E-06
 Optimization of the real space projectors (new method)

 maximal supplied QI-value         = 24.76
 optimisation between [QCUT,QGAM] = [ 11.39, 22.77] = [ 36.31,145.25] Ry 
 Optimized for a Real-space Cutoff    1.00 Angstroem

   l    n(q)    QCUT    max X(q) W(low)/X(q) W(high)/X(q)  e(spline) 
   0      7    11.387    20.381    0.39E-03    0.13E-02    0.15E-06
   0      7    11.387    15.268    0.42E-03    0.14E-02    0.17E-06
   1      6    11.387     5.964    0.41E-03    0.11E-02    0.17E-06
   1      6    11.387     5.382    0.39E-03    0.87E-03    0.15E-06
 Optimization of the real space projectors (new method)

 maximal supplied QI-value         = 14.36
 optimisation between [QCUT,QGAM] = [ 11.35, 22.84] = [ 36.05,146.02] Ry 
 Optimized for a Real-space Cutoff    1.52 Angstroem

   l    n(q)    QCUT    max X(q) W(low)/X(q) W(high)/X(q)  e(spline) 
   2      9    11.346   134.116    0.47E-03    0.13E-03    0.92E-06
   2      9    11.346   130.192    0.47E-03    0.13E-03    0.92E-06
   0     10    11.346    60.310    0.74E-04    0.13E-03    0.69E-06
   0     10    11.346    39.218    0.68E-04    0.12E-03    0.65E-06
   1     10    11.346    18.439    0.15E-03    0.34E-04    0.20E-06
   1     10    11.346    12.760    0.12E-03    0.31E-04    0.16E-06
 Optimization of the real space projectors (new method)

 maximal supplied QI-value         = 24.76
 optimisation between [QCUT,QGAM] = [ 11.39, 22.77] = [ 36.31,145.25] Ry 
 Optimized for a Real-space Cutoff    1.00 Angstroem

   l    n(q)    QCUT    max X(q) W(low)/X(q) W(high)/X(q)  e(spline) 
   0      7    11.387    20.381    0.39E-03    0.13E-02    0.15E-06
   0      7    11.387    15.268    0.42E-03    0.14E-02    0.17E-06
   1      6    11.387     5.964    0.41E-03    0.11E-02    0.17E-06
   1      6    11.387     5.382    0.39E-03    0.87E-03    0.15E-06

 ----------------------------------------------------------------------------- 
|                                                                             |
|  ADVICE TO THIS USER RUNNING 'VASP/VAMP'   (HEAR YOUR MASTER'S VOICE ...):  |
|                                                                             |
|      You enforced a specific xc-type in the INCAR file,                     |
|      a different type was found on the POTCAR file                          |
|          I HOPE YOU KNOW, WHAT YOU ARE  DOING                               |
|                                                                             |
 ----------------------------------------------------------------------------- 

  PAW_PBE Ir 06Sep2000                  :
 energy of atom  1       EATOM= -560.1833
 kinetic energy error for atom=    0.0018 (will be added to EATOM!!)
  PAW_PBE O 08Apr2002                   :
 energy of atom  2       EATOM= -432.3788
 kinetic energy error for atom=    0.0224 (will be added to EATOM!!)
  PAW_PBE Ir 06Sep2000                  :
 energy of atom  3       EATOM= -560.1833
 kinetic energy error for atom=    0.0018 (will be added to EATOM!!)
  PAW_PBE O 08Apr2002                   :
 energy of atom  4       EATOM= -432.3788
 kinetic energy error for atom=    0.0224 (will be added to EATOM!!)
 
 
 POSCAR: Ir  O Ir  O                             
  positions in cartesian coordinates
  No initial velocities read in
 exchange correlation table for  LEXCH =        9
   RHO(1)=    0.500       N(1)  =     2000
   RHO(2)=  100.500       N(2)  =     4000

 VTST: version 3.2, (02/03/18)

 CHAIN: initializing optimizer
 
 OPT: Using VASP Dynamics algorithm
 CHAIN: Read ICHAIN            0
 
 POSCAR: Ir  O Ir  O                             
  positions in cartesian coordinates
  No initial velocities read in
 


--------------------------------------------------------------------------------------------------------


 ion  position               nearest neighbor table
   1  0.125  0.500  0.188-  21 2.00  29 2.00  17 2.02  25 2.02  26 2.02  18 2.02   2 3.20  50 3.20

   2  0.375  0.500  0.188-  22 2.00  30 2.00  26 2.02  18 2.02  64 2.02  72 2.02   1 3.20  49 3.20

   3  0.125  0.000  0.062-  23 2.00  31 2.00  19 2.02  27 2.02  28 2.02  20 2.02   4 3.20  52 3.20

   4  0.375  0.000  0.062-  24 2.00  32 2.00  28 2.02  20 2.02  66 2.02  74 2.02   3 3.20  51 3.20

   5  0.000  0.500  0.062-  17 2.00  23 2.02  31 2.02  71 2.02  79 2.02   6 3.20  54 3.20
   6  0.250  0.500  0.062-  18 2.00  23 2.02  24 2.02  31 2.02  32 2.02   5 3.20  53 3.20
   7  0.000  0.000  0.188-  35 1.99  27 2.00  29 2.02  21 2.02  69 2.02  77 2.02   8 3.20  56 3.20

   8  0.250  0.000  0.188-  36 1.99  28 2.00  21 2.02  29 2.02  30 2.02  22 2.02   7 3.20  55 3.20

   9  0.122  0.500  0.442-  41 1.78  33 1.93  42 1.96  37 2.02  45 2.02  34 2.14  10 3.25
  10  0.376  0.500  0.435-  88 1.96  42 1.97  38 2.00  46 2.00  80 2.02  34 2.03  57 3.24   9 3.25

  11  0.125  0.000  0.312-  39 1.99  47 1.99  36 2.02  35 2.02  44 2.03  43 2.03  59 3.23  12 3.23

  12  0.377  0.000  0.313-  40 1.99  48 1.99  82 2.01  90 2.02  44 2.02  36 2.04  58 3.18  11 3.23

  13  0.002  0.500  0.314-  33 1.92  39 2.02  47 2.02  25 2.03  87 2.04  95 2.04  14 3.18  61 3.25

  14  0.251  0.500  0.312-  34 1.97  26 1.99  39 2.02  47 2.02  40 2.03  48 2.03  13 3.18  60 3.19

  15  0.995  0.000  0.434-  43 1.94  85 1.95  93 1.95  37 2.06  45 2.06  63 3.06  16 3.26
  16  0.250  0.000  0.434-  44 1.94  37 2.02  45 2.02  46 2.03  38 2.03  62 3.23  15 3.26
  17  0.000  0.500  0.140-   5 2.00   1 2.02  50 2.02
  18  0.250  0.500  0.140-   6 2.00   2 2.02   1 2.02
  19  0.000  0.000  0.015-   3 2.02  52 2.02
  20  0.250  0.000  0.015-   3 2.02   4 2.02
  21  0.125  0.808  0.188-   1 2.00   7 2.02   8 2.02
  22  0.375  0.808  0.188-   2 2.00   8 2.02  55 2.02
  23  0.125  0.308  0.062-   3 2.00   5 2.02   6 2.02
  24  0.375  0.308  0.062-   4 2.00   6 2.02  53 2.02
  25  0.000  0.500  0.235-   1 2.02  50 2.02  13 2.03
  26  0.250  0.500  0.235-  14 1.99   2 2.02   1 2.02
  27  0.000  0.000  0.110-   7 2.00   3 2.02  52 2.02
  28  0.250  0.000  0.110-   8 2.00   4 2.02   3 2.02
  29  0.125  0.192  0.188-   1 2.00   7 2.02   8 2.02
  30  0.375  0.192  0.188-   2 2.00   8 2.02  55 2.02
  31  0.125  0.692  0.062-   3 2.00   5 2.02   6 2.02
  32  0.375  0.692  0.062-   4 2.00   6 2.02  53 2.02
  33  0.018  0.500  0.388-  13 1.92   9 1.93
  34  0.249  0.500  0.388-  14 1.97  10 2.03   9 2.14
  35  0.999  0.000  0.264-   7 1.99  11 2.02  59 2.04
  36  0.251  0.000  0.264-   8 1.99  11 2.02  12 2.04
  37  0.124  0.813  0.441-  16 2.02   9 2.02  15 2.06
  38  0.375  0.809  0.437-  10 2.00  16 2.03  62 2.04
  39  0.126  0.308  0.310-  11 1.99  13 2.02  14 2.02
  40  0.376  0.308  0.312-  12 1.99  60 2.02  14 2.03
  41  0.040  0.500  0.498-   9 1.78
  42  0.253  0.500  0.481-   9 1.96  10 1.97
  43  0.999  0.000  0.359-  15 1.94  59 2.01  11 2.03
  44  0.250  0.000  0.359-  16 1.94  12 2.02  11 2.03
  45  0.124  0.187  0.441-  16 2.02   9 2.02  15 2.06
  46  0.375  0.191  0.437-  10 2.00  16 2.03  62 2.04
  47  0.126  0.692  0.310-  11 1.99  13 2.02  14 2.02
  48  0.376  0.692  0.312-  12 1.99  60 2.02  14 2.03
  49  0.625  0.500  0.188-  68 2.00  76 2.00  64 2.02  72 2.02  73 2.02  65 2.02   2 3.20  50 3.20

  50  0.875  0.500  0.188-  69 2.00  77 2.00  65 2.02  17 2.02  73 2.02  25 2.02   1 3.20  49 3.20

  51  0.625  0.000  0.062-  70 2.00  78 2.00  66 2.02  74 2.02  75 2.02  67 2.02   4 3.20  52 3.20

  52  0.875  0.000  0.062-  71 2.00  79 2.00  67 2.02  19 2.02  75 2.02  27 2.02   3 3.20  51 3.20

  53  0.500  0.500  0.062-  64 2.00  32 2.02  24 2.02  70 2.02  78 2.02  54 3.20   6 3.20
  54  0.750  0.500  0.062-  65 2.00  70 2.02  71 2.02  78 2.02  79 2.02  53 3.20   5 3.20
  55  0.500  0.000  0.188-  74 2.00  82 2.00  68 2.02  22 2.02  76 2.02  30 2.02   8 3.20  56 3.20

  56  0.750  0.000  0.188-  75 2.00  83 2.00  68 2.02  76 2.02  77 2.02  69 2.02   7 3.20  55 3.20

  57  0.628  0.500  0.441-  89 1.79  81 1.93  88 1.95  84 2.02  92 2.02  80 2.12  10 3.24
  58  0.625  0.000  0.313-  86 1.99  94 1.99  90 2.02  83 2.03  82 2.03  91 2.03  59 3.17  12 3.18

  59  0.873  0.000  0.313-  87 2.00  95 2.00  83 2.01  43 2.01  91 2.02  35 2.04  58 3.17  11 3.23

  60  0.500  0.500  0.312-  80 1.97  72 1.98  40 2.02  48 2.02  86 2.02  94 2.02  61 3.18  14 3.19

  61  0.748  0.500  0.314-  81 1.91  86 2.02  94 2.02  73 2.03  87 2.04  95 2.04  60 3.18  13 3.25

  62  0.501  0.000  0.442-  97 1.79  92 2.02  84 2.02  46 2.04  38 2.04  90 2.10  16 3.23  63 3.28

  63  0.757  0.000  0.444-  96 1.77  93 1.94  85 1.94  84 2.08  92 2.08  91 2.14  15 3.06  62 3.28

  64  0.500  0.500  0.140-  53 2.00  49 2.02   2 2.02
  65  0.750  0.500  0.140-  54 2.00  50 2.02  49 2.02
  66  0.500  0.000  0.015-   4 2.02  51 2.02
  67  0.750  0.000  0.015-  51 2.02  52 2.02
  68  0.625  0.808  0.188-  49 2.00  55 2.02  56 2.02
  69  0.875  0.808  0.188-  50 2.00   7 2.02  56 2.02
  70  0.625  0.308  0.062-  51 2.00  53 2.02  54 2.02
  71  0.875  0.308  0.062-  52 2.00   5 2.02  54 2.02
  72  0.500  0.500  0.235-  60 1.98  49 2.02   2 2.02
  73  0.750  0.500  0.235-  49 2.02  50 2.02  61 2.03
  74  0.500  0.000  0.110-  55 2.00  51 2.02   4 2.02
  75  0.750  0.000  0.110-  56 2.00  52 2.02  51 2.02
  76  0.625  0.192  0.188-  49 2.00  55 2.02  56 2.02
  77  0.875  0.192  0.188-  50 2.00   7 2.02  56 2.02
  78  0.625  0.692  0.062-  51 2.00  53 2.02  54 2.02
  79  0.875  0.692  0.062-  52 2.00   5 2.02  54 2.02
  80  0.501  0.500  0.388-  60 1.97  10 2.02  57 2.12
  81  0.734  0.500  0.388-  61 1.91  57 1.93
  82  0.500  0.000  0.265-  55 2.00  12 2.01  58 2.03
  83  0.750  0.000  0.265-  56 2.00  59 2.01  58 2.03
  84  0.626  0.812  0.436-  57 2.02  62 2.02  63 2.08
  85  0.875  0.814  0.438-  63 1.94  15 1.95
  86  0.624  0.308  0.310-  58 1.99  60 2.02  61 2.02
  87  0.875  0.309  0.314-  59 2.00  61 2.04  13 2.04
  88  0.499  0.500  0.480-  57 1.95  10 1.96
  89  0.709  0.500  0.497-  57 1.79
  90  0.501  0.000  0.361-  12 2.02  58 2.02  62 2.10
  91  0.750  0.000  0.362-  59 2.02  58 2.03  63 2.14
  92  0.626  0.188  0.436-  57 2.02  62 2.02  63 2.08
  93  0.875  0.186  0.438-  63 1.94  15 1.95
  94  0.624  0.692  0.310-  58 1.99  60 2.02  61 2.02
  95  0.875  0.691  0.314-  59 2.00  61 2.04  13 2.04
  96  0.746  0.000  0.512-  63 1.77
  97  0.502  0.000  0.511-  62 1.79
 
  LATTYP: Found a simple orthorhombic cell.
 ALAT       =     6.4702430000
 B/A-ratio  =     1.9796060210
 C/A-ratio  =     4.0000000000
  
  Lattice vectors:
  
 A1 = (   0.0000000000,  -6.4702430000,   0.0000000000)
 A2 = ( -12.8085320000,   0.0000000000,   0.0000000000)
 A3 = (   0.0000000000,   0.0000000000, -25.8809720000)


Analysis of symmetry for initial positions (statically):
=====================================================================
 Subroutine PRICEL returns:
 Original cell was already a primitive cell.
 

 Routine SETGRP: Setting up the symmetry group for a 
 simple orthorhombic supercell.


 Subroutine GETGRP returns: Found  2 space group operations
 (whereof  2 operations were pure point group operations)
 out of a pool of  8 trial point group operations.


The static configuration has the point symmetry C_1h.


Analysis of symmetry for dynamics (positions and initial velocities):
=====================================================================
 Subroutine PRICEL returns:
 Original cell was already a primitive cell.
 

 Routine SETGRP: Setting up the symmetry group for a 
 simple orthorhombic supercell.


 Subroutine GETGRP returns: Found  2 space group operations
 (whereof  2 operations were pure point group operations)
 out of a pool of  8 trial point group operations.


The dynamic configuration has the point symmetry C_1h.


Analysis of constrained symmetry for selective dynamics:
=====================================================================
 Subroutine PRICEL returns:
 Original cell was already a primitive cell.
 

 Routine SETGRP: Setting up the symmetry group for a 
 simple orthorhombic supercell.


 Subroutine GETGRP returns: Found  2 space group operations
 (whereof  2 operations were pure point group operations)
 out of a pool of  8 trial point group operations.


The constrained configuration has the point symmetry C_1h.


Analysis of structural, dynamic, and magnetic symmetry:
=====================================================================
 Subroutine PRICEL returns:
 Original cell was already a primitive cell.
 

 Routine SETGRP: Setting up the symmetry group for a 
 simple orthorhombic supercell.


 Subroutine GETGRP returns: Found  2 space group operations
 (whereof  2 operations were pure point group operations)
 out of a pool of  8 trial point group operations.


The magnetic configuration has the point symmetry C_1h.


 Subroutine INISYM returns: Found  2 space group operations
 (whereof  2 operations are pure point group operations),
 and found     1 'primitive' translations

 
 
 KPOINTS: Automatic mesh                          

Automatic generation of k-mesh.
Space group operators:
 irot       det(A)        alpha          n_x          n_y          n_z        tau_x        tau_y        tau_z
    1     1.000000     0.000001     1.000000     0.000000     0.000000     0.000000     0.000000     0.000000
    2    -1.000000   180.000000     0.000000     1.000000     0.000000     0.000000     0.000000     0.000000
 
 Subroutine IBZKPT returns following result:
 ===========================================
 
 Found      4 irreducible k-points:
 
 Following reciprocal coordinates:
            Coordinates               Weight
  0.000000  0.000000  0.000000      1.000000
  0.333333  0.000000  0.000000      2.000000
  0.000000  0.333333  0.000000      2.000000
  0.333333  0.333333  0.000000      4.000000
 
 Following cartesian coordinates:
            Coordinates               Weight
  0.000000  0.000000  0.000000      1.000000
  0.026024  0.000000  0.000000      2.000000
  0.000000  0.051518  0.000000      2.000000
  0.026024  0.051518  0.000000      4.000000
 
 
 Subroutine IBZKPT_HF returns following result:
 ==============================================
 
 Found      9 k-points in 1st BZ
 the following      9 k-points will be used (e.g. in the exchange kernel)
 Following reciprocal coordinates:   # in IRBZ
  0.000000  0.000000  0.000000    0.11111111   1 t-inv F
  0.333333  0.000000  0.000000    0.11111111   2 t-inv F
  0.000000  0.333333  0.000000    0.11111111   3 t-inv F
  0.333333  0.333333  0.000000    0.11111111   4 t-inv F
  0.000000 -0.333333  0.000000    0.11111111   3 t-inv F
  0.333333 -0.333333  0.000000    0.11111111   4 t-inv F
 -0.333333  0.000000  0.000000    0.11111111   2 t-inv T
 -0.333333 -0.333333  0.000000    0.11111111   4 t-inv T
 -0.333333  0.333333  0.000000    0.11111111   4 t-inv T


--------------------------------------------------------------------------------------------------------




 Dimension of arrays:
   k-points           NKPTS =      4   k-points in BZ     NKDIM =      4   number of bands    NBANDS=    440
   number of dos      NEDOS =    301   number of ions     NIONS =     97
   non local maximal  LDIM  =      6   non local SUM 2l+1 LMDIM =     18
   total plane-waves  NPLWV = 362880
   max r-space proj   IRMAX =   2532   max aug-charges    IRDMAX=  12432
   dimension x,y,z NGX =    70 NGY =   36 NGZ =  144
   dimension x,y,z NGXF=   140 NGYF=   72 NGZF=  288
   support grid    NGXF=   140 NGYF=   72 NGZF=  288
   ions per type =              16  32  15  34
   NGX,Y,Z   is equivalent  to a cutoff of   9.09,  9.25,  9.25 a.u.
   NGXF,Y,Z  is equivalent  to a cutoff of  18.17, 18.50, 18.50 a.u.

 SYSTEM =  unknown system                          
 POSCAR =  Ir  O Ir  O                             

 Startparameter for this run:
   NWRITE =      2    write-flag & timer
   PREC   = normal    normal or accurate (medium, high low for compatibility)
   ISTART =      0    job   : 0-new  1-cont  2-samecut
   ICHARG =      2    charge: 1-file 2-atom 10-const
   ISPIN  =      2    spin polarized calculation?
   LNONCOLLINEAR =      F non collinear calculations
   LSORBIT =      F    spin-orbit coupling
   INIWAV =      1    electr: 0-lowe 1-rand  2-diag
   LASPH  =      F    aspherical Exc in radial PAW
   METAGGA=      F    non-selfconsistent MetaGGA calc.

 Electronic Relaxation 1
   ENCUT  =  500.0 eV  36.75 Ry    6.06 a.u.  23.35 11.80 47.19*2*pi/ulx,y,z
   ENINI  =  500.0     initial cutoff
   ENAUG  =  605.4 eV  augmentation charge cutoff
   NELM   =     60;   NELMIN=  4; NELMDL= -5     # of ELM steps 
   EDIFF  = 0.1E-05   stopping-criterion for ELM
   LREAL  =      T    real-space projection
   NLSPLINE    = F    spline interpolate recip. space projectors
   LCOMPAT=      F    compatible to vasp.4.4
   GGA_COMPAT  = T    GGA compatible to vasp.4.4-vasp.4.6
   LMAXPAW     = -100 max onsite density
   LMAXMIX     =    2 max onsite mixed and CHGCAR
   VOSKOWN=      0    Vosko Wilk Nusair interpolation
   ROPT   =   -0.00050  -0.00050  -0.00050  -0.00050
 Ionic relaxation
   EDIFFG = -.5E-01   stopping-criterion for IOM
   NSW    =   1201    number of steps for IOM
   NBLOCK =      1;   KBLOCK =   1201    inner block; outer block 
   IBRION =      5    ionic relax: 0-MD 1-quasi-New 2-CG
   NFREE  =      2    steps in history (QN), initial steepest desc. (CG)
   ISIF   =      2    stress and relaxation
   IWAVPR =     11    prediction:  0-non 1-charg 2-wave 3-comb
   ISYM   =      2    0-nonsym 1-usesym 2-fastsym
   LCORR  =      T    Harris-Foulkes like correction to forces

   POTIM  = 0.5000    time-step for ionic-motion
   TEIN   =    0.0    initial temperature
   TEBEG  =    0.0;   TEEND  =   0.0 temperature during run
   SMASS  =  -3.00    Nose mass-parameter (am)
   estimated Nose-frequenzy (Omega)   =  0.10E-29 period in steps =****** mass=  -0.375E-26a.u.
   SCALEE = 1.0000    scale energy and forces
   NPACO  =    256;   APACO  = 16.0  distance and # of slots for P.C.
   PSTRESS=    0.0 pullay stress

  Mass of Ions in am
   POMASS = 192.22 16.00192.22 16.00
  Ionic Valenz
   ZVAL   =   9.00  6.00  9.00  6.00
  Atomic Wigner-Seitz radii
   RWIGS  =  -1.00 -1.00 -1.00 -1.00
  virtual crystal weights 
   VCA    =   1.00  1.00  1.00  1.00
   NELECT =     675.0000    total number of electrons
   NUPDOWN=      -1.0000    fix difference up-down

 DOS related values:
   EMIN   =  10.00;   EMAX   =-10.00  energy-range for DOS
   EFERMI =   0.00
   ISMEAR =     0;   SIGMA  =   0.05  broadening in eV -4-tet -1-fermi 0-gaus

 Electronic relaxation 2 (details)
   IALGO  =     68    algorithm
   LDIAG  =      T    sub-space diagonalisation (order eigenvalues)
   LSUBROT=      F    optimize rotation matrix (better conditioning)
   TURBO    =      0    0=normal 1=particle mesh
   IRESTART =      0    0=no restart 2=restart with 2 vectors
   NREBOOT  =      0    no. of reboots
   NMIN     =      0    reboot dimension
   EREF     =   0.00    reference energy to select bands
   IMIX   =      4    mixing-type and parameters
     AMIX     =   0.40;   BMIX     =  1.00
     AMIX_MAG =   1.60;   BMIX_MAG =  1.00
     AMIN     =   0.10
     WC   =   100.;   INIMIX=   1;  MIXPRE=   1;  MAXMIX=  60

 Intra band minimization:
   WEIMIN = 0.0010     energy-eigenvalue tresh-hold
   EBREAK =  0.57E-09  absolut break condition
   DEPER  =   0.30     relativ break condition  

   TIME   =   0.40     timestep for ELM

  volume/ion in A,a.u.               =      22.11       149.22
  Fermi-wavevector in a.u.,A,eV,Ry     =   1.113549  2.104302 16.871100  1.239991
  Thomas-Fermi vector in A             =   2.250135
 
 Write flags
   LWAVE        =      F    write WAVECAR
   LDOWNSAMPLE  =      F    k-point downsampling of WAVECAR
   LCHARG       =      F    write CHGCAR
   LVTOT        =      F    write LOCPOT, total local potential
   LVHAR        =      T    write LOCPOT, Hartree potential only
   LELF         =      F    write electronic localiz. function (ELF)
   LORBIT       =      0    0 simple, 1 ext, 2 COOP (PROOUT), +10 PAW based schemes


 Dipole corrections
   LMONO  =      F    monopole corrections only (constant potential shift)
   LDIPOL =      F    correct potential (dipole corrections)
   IDIPOL =      0    1-x, 2-y, 3-z, 4-all directions 
   EPSILON=  1.0000000 bulk dielectric constant

 Exchange correlation treatment:
   GGA     =    RP    GGA type
   LEXCH   =     9    internal setting for exchange type
   VOSKOWN=      0    Vosko Wilk Nusair interpolation
   LHFCALC =     F    Hartree Fock is set to
   LHFONE  =     F    Hartree Fock one center treatment
   AEXX    =    0.0000 exact exchange contribution

 Linear response parameters
   LEPSILON=     F    determine dielectric tensor
   LRPA    =     F    only Hartree local field effects (RPA)
   LNABLA  =     F    use nabla operator in PAW spheres
   LVEL    =     F    velocity operator in full k-point grid
   LINTERFAST=   F  fast interpolation
   KINTER  =     0    interpolate to denser k-point grid
   CSHIFT  =0.1000    complex shift for real part using Kramers Kronig
   OMEGAMAX=  -1.0    maximum frequency
   DEG_THRESHOLD= 0.2000000E-02 threshold for treating states as degnerate
   RTIME   =   -0.100 relaxation time in fs
  (WPLASMAI=    0.000 imaginary part of plasma frequency in eV, 0.658/RTIME)
   DFIELD  = 0.0000000 0.0000000 0.0000000 field for delta impulse in time
 
 Orbital magnetization related:
   ORBITALMAG=     F  switch on orbital magnetization
   LCHIMAG   =     F  perturbation theory with respect to B field
   DQ        =  0.001000  dq finite difference perturbation B field
   LLRAUG    =     F  two centre corrections for induced B field



--------------------------------------------------------------------------------------------------------


 finite differences
   using selective dynamics as specified on POSCAR
   WARNING: If single coordinates had been selected the selection of coordinates
            is made according to the corresponding   d i r e c t   coordinates!
            Don't support selection of single cartesian coordinates -- sorry ...
  !
 charge density and potential will be updated during run
 spin polarized calculation
 RMM-DIIS sequential band-by-band and
  variant of blocked Davidson during initial phase
 perform sub-space diagonalisation
    before iterative eigenvector-optimisation
 modified Broyden-mixing scheme, WC =      100.0
 initial mixing is a Kerker type mixing with AMIX =  0.4000 and BMIX =      1.0000
 Hartree-type preconditioning will be used
 using additional bands          102
 real space projection scheme for non local part
 use partial core corrections
 calculate Harris-corrections to forces 
   (improved forces if not selfconsistent)
 use gradient corrections 
 use of overlap-Matrix (Vanderbilt PP)
 Gauss-broadening in eV      SIGMA  =   0.05


--------------------------------------------------------------------------------------------------------


  energy-cutoff  :      500.00
  volume of cell :     2144.87
      direct lattice vectors                 reciprocal lattice vectors
    12.808532000  0.000000000  0.000000000     0.078072959  0.000000000  0.000000000
     0.000000000  6.470243000  0.000000000     0.000000000  0.154553701  0.000000000
     0.000000000  0.000000000 25.880972000     0.000000000  0.000000000  0.038638425

  length of vectors
    12.808532000  6.470243000 25.880972000     0.078072959  0.154553701  0.038638425


 
 k-points in units of 2pi/SCALE and weight: Automatic mesh                          
   0.00000000  0.00000000  0.00000000       0.111
   0.02602432  0.00000000  0.00000000       0.222
   0.00000000  0.05151790  0.00000000       0.222
   0.02602432  0.05151790  0.00000000       0.444
 
 k-points in reciprocal lattice and weights: Automatic mesh                          
   0.00000000  0.00000000  0.00000000       0.111
   0.33333333  0.00000000  0.00000000       0.222
   0.00000000  0.33333333  0.00000000       0.222
   0.33333333  0.33333333  0.00000000       0.444
 
 position of ions in fractional coordinates (direct lattice) 
   0.12500000  0.50000000  0.18750000
   0.37500000  0.50000000  0.18750000
   0.12500000  0.00000000  0.06250000
   0.37500000  0.00000000  0.06250000
   0.00000000  0.50000000  0.06250000
   0.25000000  0.50000000  0.06250000
   0.00000000  0.00000000  0.18750000
   0.25000000  0.00000000  0.18750000
   0.12203010  0.50000000  0.44197653
   0.37555184  0.50000000  0.43537280
   0.12509596  0.00000000  0.31151048
   0.37702934  0.00000000  0.31262408
   0.00227476  0.50000000  0.31395630
   0.25080021  0.50000000  0.31211955
   0.99516861  0.00000000  0.43401270
   0.24965435  0.00000000  0.43433581
   0.00000000  0.50000000  0.13961000
   0.25000000  0.50000000  0.13961000
   0.00000000  0.00000000  0.01461000
   0.25000000  0.00000000  0.01461000
   0.12500000  0.80844000  0.18750000
   0.37500000  0.80844000  0.18750000
   0.12500000  0.30844000  0.06250000
   0.37500000  0.30844000  0.06250000
   0.00000000  0.50000000  0.23539000
   0.25000000  0.50000000  0.23539000
   0.00000000  0.00000000  0.11039000
   0.25000000  0.00000000  0.11039000
   0.12500000  0.19156000  0.18750000
   0.37500000  0.19156000  0.18750000
   0.12500000  0.69156000  0.06250000
   0.37500000  0.69156000  0.06250000
   0.01849224  0.50000000  0.38787581
   0.24909541  0.50000000  0.38832266
   0.99939880  0.00000000  0.26432445
   0.25075872  0.00000000  0.26441586
   0.12422453  0.81286690  0.44115538
   0.37495057  0.80912590  0.43705424
   0.12632578  0.30821858  0.31025341
   0.37583619  0.30818088  0.31245972
   0.04037960  0.50000000  0.49778049
   0.25301631  0.50000000  0.48109151
   0.99927674  0.00000000  0.35917635
   0.25041399  0.00000000  0.35923625
   0.12422453  0.18713310  0.44115538
   0.37495057  0.19087410  0.43705424
   0.12632578  0.69178142  0.31025341
   0.37583619  0.69181912  0.31245972
   0.62500000  0.50000000  0.18750000
   0.87500000  0.50000000  0.18750000
   0.62500000  0.00000000  0.06250000
   0.87500000  0.00000000  0.06250000
   0.50000000  0.50000000  0.06250000
   0.75000000  0.50000000  0.06250000
   0.50000000  0.00000000  0.18750000
   0.75000000  0.00000000  0.18750000
   0.62810249  0.50000000  0.44057979
   0.62549917  0.00000000  0.31304554
   0.87326246  0.00000000  0.31272166
   0.50011551  0.50000000  0.31199540
   0.74846152  0.50000000  0.31400517
   0.50099741  0.00000000  0.44202068
   0.75698518  0.00000000  0.44414953
   0.50000000  0.50000000  0.13961000
   0.75000000  0.50000000  0.13961000
   0.50000000  0.00000000  0.01461000
   0.75000000  0.00000000  0.01461000
   0.62500000  0.80844000  0.18750000
   0.87500000  0.80844000  0.18750000
   0.62500000  0.30844000  0.06250000
   0.87500000  0.30844000  0.06250000
   0.50000000  0.50000000  0.23539000
   0.75000000  0.50000000  0.23539000
   0.50000000  0.00000000  0.11039000
   0.75000000  0.00000000  0.11039000
   0.62500000  0.19156000  0.18750000
   0.87500000  0.19156000  0.18750000
   0.62500000  0.69156000  0.06250000
   0.87500000  0.69156000  0.06250000
   0.50090276  0.50000000  0.38805012
   0.73358038  0.50000000  0.38753420
   0.50044624  0.00000000  0.26473041
   0.75003550  0.00000000  0.26470715
   0.62629397  0.81159035  0.43601903
   0.87525079  0.81415064  0.43808797
   0.62431702  0.30756849  0.31046143
   0.87496765  0.30932845  0.31389938
   0.49860302  0.50000000  0.48043109
   0.70937974  0.50000000  0.49662343
   0.50067297  0.00000000  0.36099679
   0.75044683  0.00000000  0.36151142
   0.62629397  0.18840965  0.43601903
   0.87525079  0.18584936  0.43808797
   0.62431702  0.69243151  0.31046143
   0.87496765  0.69067155  0.31389938
   0.74589665  0.00000000  0.51234738
   0.50237183  0.00000000  0.51129111
 
 position of ions in cartesian coordinates  (Angst):
   1.60106650  3.23512150  4.85268225
   4.80319950  3.23512150  4.85268225
   1.60106650  0.00000000  1.61756075
   4.80319950  0.00000000  1.61756075
   0.00000000  3.23512150  1.61756075
   3.20213300  3.23512150  1.61756075
   0.00000000  0.00000000  4.85268225
   3.20213300  0.00000000  4.85268225
   1.56302642  3.23512150 11.43878209
   4.81026774  3.23512150 11.26787126
   1.60229560  0.00000000  8.06219394
   4.82919234  0.00000000  8.09101496
   0.02913638  3.23512150  8.12549423
   3.21238258  3.23512150  8.07795735
  12.74664904  0.00000000 11.23267065
   3.19770572  0.00000000 11.24103287
   0.00000000  3.23512150  3.61324250
   3.20213300  3.23512150  3.61324250
   0.00000000  0.00000000  0.37812100
   3.20213300  0.00000000  0.37812100
   1.60106650  5.23080325  4.85268225
   4.80319950  5.23080325  4.85268225
   1.60106650  1.99568175  1.61756075
   4.80319950  1.99568175  1.61756075
   0.00000000  3.23512150  6.09212200
   3.20213300  3.23512150  6.09212200
   0.00000000  0.00000000  2.85700050
   3.20213300  0.00000000  2.85700050
   1.60106650  1.23943975  4.85268225
   4.80319950  1.23943975  4.85268225
   1.60106650  4.47456125  1.61756075
   4.80319950  4.47456125  1.61756075
   0.23685842  3.23512150 10.03860296
   3.19054652  3.23512150 10.05016790
  12.80083153  0.00000000  6.84097366
   3.21185115  0.00000000  6.84333941
   1.59113391  5.25944639 11.41753003
   4.80256632  5.23524122 11.31138848
   1.61804777  1.99424908  8.02965973
   4.81390986  1.99400516  8.08676118
   0.51720341  3.23512150 12.88304305
   3.24076744  3.23512150 12.45111588
  12.79926815  0.00000000  9.29583318
   3.20743566  0.00000000  9.29738320
   1.59113391  1.21079661 11.41753003
   4.80256632  1.23500178 11.31138848
   1.61804777  4.47599392  8.02965973
   4.81390986  4.47623784  8.08676118
   8.00533250  3.23512150  4.85268225
  11.20746550  3.23512150  4.85268225
   8.00533250  0.00000000  1.61756075
  11.20746550  0.00000000  1.61756075
   6.40426600  3.23512150  1.61756075
   9.60639900  3.23512150  1.61756075
   6.40426600  0.00000000  4.85268225
   9.60639900  0.00000000  4.85268225
   8.04507089  3.23512150 11.40263331
   8.01172607  0.00000000  8.10192289
  11.18521017  0.00000000  8.09354052
   6.40574550  3.23512150  8.07474434
   9.58669330  3.23512150  8.12675889
   6.41704132  0.00000000 11.43992477
   9.69586885  0.00000000 11.49502163
   6.40426600  3.23512150  3.61324250
   9.60639900  3.23512150  3.61324250
   6.40426600  0.00000000  0.37812100
   9.60639900  0.00000000  0.37812100
   8.00533250  5.23080325  4.85268225
  11.20746550  5.23080325  4.85268225
   8.00533250  1.99568175  1.61756075
  11.20746550  1.99568175  1.61756075
   6.40426600  3.23512150  6.09212200
   9.60639900  3.23512150  6.09212200
   6.40426600  0.00000000  2.85700050
   9.60639900  0.00000000  2.85700050
   8.00533250  1.23943975  4.85268225
  11.20746550  1.23943975  4.85268225
   8.00533250  4.47456125  1.61756075
  11.20746550  4.47456125  1.61756075
   6.41582906  3.23512150 10.04311417
   9.39608782  3.23512150 10.02976166
   6.40998168  0.00000000  6.85148024
   9.60685367  0.00000000  6.85087829
   8.02190630  5.25118680 11.28459643
  11.21067780  5.26775246 11.33814242
   7.99658449  1.99004284  8.03504352
  11.20705112  2.00143026  8.12402112
   6.38637280  3.23512150 12.43402365
   9.08611307  3.23512150 12.85309719
   6.41288581  0.00000000  9.34294769
   9.61212226  0.00000000  9.35626688
   8.02190630  1.21905620 11.28459643
  11.21067780  1.20249054 11.33814242
   7.99658449  4.48020016  8.03504352
  11.20705112  4.46881274  8.12402112
   9.55384116  0.00000000 13.26004829
   6.43464562  0.00000000 13.23271085
 


--------------------------------------------------------------------------------------------------------


 k-point  1 :   0.0000 0.0000 0.0000  plane waves:   54455
 k-point  2 :   0.3333 0.0000 0.0000  plane waves:   54459
 k-point  3 :   0.0000 0.3333 0.0000  plane waves:   54468
 k-point  4 :   0.3333 0.3333 0.0000  plane waves:   54434

 maximum and minimum number of plane-waves per node :     54468    54434

 maximum number of plane-waves:     54468
 maximum index in each direction: 
   IXMAX=   23   IYMAX=   11   IZMAX=   47
   IXMIN=  -23   IYMIN=  -12   IZMIN=  -47


 serial   3D FFT for wavefunctions
 parallel 3D FFT for charge:
    minimum data exchange during FFTs selected (reduces bandwidth)


 total amount of memory used by VASP MPI-rank0   171889. kBytes
=======================================================================

   base      :      30000. kBytes
   nonlr-proj:      19273. kBytes
   fftplans  :       4196. kBytes
   grid      :      37119. kBytes
   one-center:       3017. kBytes
   wavefun   :      78284. kBytes
 
     INWAV:  cpu time    0.0000: real time    0.0002
 Broyden mixing: mesh for mixing (old mesh)
   NGX = 47   NGY = 23   NGZ = 95
  (NGX  =140   NGY  = 72   NGZ  =288)
  gives a total of 102695 points

 initial charge density was supplied:
 charge density of overlapping atoms calculated
 number of electron     675.0000000 magnetization      58.2000000
 keeping initial charge density in first step


--------------------------------------------------------------------------------------------------------


 Maximum index for non-local projection operator         2443
 Maximum index for augmentation-charges          641 (set IRDMAX)


--------------------------------------------------------------------------------------------------------


 First call to EWALD:  gamma=   0.137
 Maximum number of real-space cells 3x 5x 2
 Maximum number of reciprocal cells 3x 2x 5

    FEWALD:  cpu time    0.0057: real time    0.0058


--------------------------------------- Iteration      1(   1)  ---------------------------------------


    POTLOK:  cpu time    0.1431: real time    0.1511
    SETDIJ:  cpu time    0.0205: real time    0.0219
     EDDAV:  cpu time   15.3200: real time   15.3916
       DOS:  cpu time    0.0013: real time    0.0024
    --------------------------------------------
      LOOP:  cpu time   15.4849: real time   15.5671

 eigenvalue-minimisations  :  7040
 total energy-change (2. order) : 0.7335621E+04  (-0.3040367E+05)
 number of electron     675.0000000 magnetization      58.2000000
 augmentation part      675.0000000 magnetization      58.2000000

 Free energy of the ion-electron system (eV)
  ---------------------------------------------------
  alpha Z        PSCENC =      1717.01503502
  Ewald energy   TEWEN  =    226336.68639598
  -Hartree energ DENC   =   -271657.22689377
  -exchange      EXHF   =         0.00000000
  -V(xc)+E(xc)   XCENC  =      1272.58936120
  PAW double counting   =     40003.38402717   -38825.35607587
  entropy T*S    EENTRO =        -0.05566385
  eigenvalues    EBANDS =      2614.55511825
  atomic energy  EATOM  =     45874.02969909
  Solvation  Ediel_sol  =         0.00000000
  ---------------------------------------------------
  free energy    TOTEN  =      7335.62100323 eV

  energy without entropy =     7335.67666708  energy(sigma->0) =     7335.64883516


--------------------------------------------------------------------------------------------------------




--------------------------------------- Iteration      1(   2)  ---------------------------------------


     EDDAV:  cpu time   15.8054: real time   15.8788
       DOS:  cpu time    0.0010: real time    0.0010
    --------------------------------------------
      LOOP:  cpu time   15.8064: real time   15.8797

 eigenvalue-minimisations  :  7320
 total energy-change (2. order) :-0.6883357E+04  (-0.6347142E+04)
 number of electron     675.0000000 magnetization      58.2000000
 augmentation part      675.0000000 magnetization      58.2000000

 Free energy of the ion-electron system (eV)
  ---------------------------------------------------
  alpha Z        PSCENC =      1717.01503502
  Ewald energy   TEWEN  =    226336.68639598
  -Hartree energ DENC   =   -271657.22689377
  -exchange      EXHF   =         0.00000000
  -V(xc)+E(xc)   XCENC  =      1272.58936120
  PAW double counting   =     40003.38402717   -38825.35607587
  entropy T*S    EENTRO =        -0.04468393
  eigenvalues    EBANDS =     -4268.81260436
  atomic energy  EATOM  =     45874.02969909
  Solvation  Ediel_sol  =         0.00000000
  ---------------------------------------------------
  free energy    TOTEN  =       452.26426055 eV

  energy without entropy =      452.30894447  energy(sigma->0) =      452.28660251


--------------------------------------------------------------------------------------------------------




--------------------------------------- Iteration      1(   3)  ---------------------------------------


     EDDAV:  cpu time   19.6557: real time   19.7113
       DOS:  cpu time    0.0009: real time    0.0009
    --------------------------------------------
      LOOP:  cpu time   19.6566: real time   19.7122

 eigenvalue-minimisations  :  9520
 total energy-change (2. order) :-0.1154909E+04  (-0.1111623E+04)
 number of electron     675.0000000 magnetization      58.2000000
 augmentation part      675.0000000 magnetization      58.2000000

 Free energy of the ion-electron system (eV)
  ---------------------------------------------------
  alpha Z        PSCENC =      1717.01503502
  Ewald energy   TEWEN  =    226336.68639598
  -Hartree energ DENC   =   -271657.22689377
  -exchange      EXHF   =         0.00000000
  -V(xc)+E(xc)   XCENC  =      1272.58936120
  PAW double counting   =     40003.38402717   -38825.35607587
  entropy T*S    EENTRO =        -0.07785640
  eigenvalues    EBANDS =     -5423.68800963
  atomic energy  EATOM  =     45874.02969909
  Solvation  Ediel_sol  =         0.00000000
  ---------------------------------------------------
  free energy    TOTEN  =      -702.64431719 eV

  energy without entropy =     -702.56646080  energy(sigma->0) =     -702.60538899


--------------------------------------------------------------------------------------------------------




--------------------------------------- Iteration      1(   4)  ---------------------------------------


     EDDAV:  cpu time   17.9255: real time   17.9945
       DOS:  cpu time    0.0009: real time    0.0009
    --------------------------------------------
      LOOP:  cpu time   17.9264: real time   17.9953

 eigenvalue-minimisations  :  8560
 total energy-change (2. order) :-0.5021724E+02  (-0.4923887E+02)
 number of electron     675.0000000 magnetization      58.2000000
 augmentation part      675.0000000 magnetization      58.2000000

 Free energy of the ion-electron system (eV)
  ---------------------------------------------------
  alpha Z        PSCENC =      1717.01503502
  Ewald energy   TEWEN  =    226336.68639598
  -Hartree energ DENC   =   -271657.22689377
  -exchange      EXHF   =         0.00000000
  -V(xc)+E(xc)   XCENC  =      1272.58936120
  PAW double counting   =     40003.38402717   -38825.35607587
  entropy T*S    EENTRO =        -0.08343413
  eigenvalues    EBANDS =     -5473.89967168
  atomic energy  EATOM  =     45874.02969909
  Solvation  Ediel_sol  =         0.00000000
  ---------------------------------------------------
  free energy    TOTEN  =      -752.86155698 eV

  energy without entropy =     -752.77812285  energy(sigma->0) =     -752.81983992


--------------------------------------------------------------------------------------------------------




--------------------------------------- Iteration      1(   5)  ---------------------------------------


     EDDAV:  cpu time   18.2510: real time   18.3018
       DOS:  cpu time    0.0008: real time    0.0008
    CHARGE:  cpu time    0.7337: real time    0.7360
    MIXING:  cpu time    0.0034: real time    0.0045
    --------------------------------------------
      LOOP:  cpu time   18.9889: real time   19.0431

 eigenvalue-minimisations  :  8720
 total energy-change (2. order) :-0.1370213E+01  (-0.1364974E+01)
 number of electron     675.0000509 magnetization      54.4150242
 augmentation part      115.7263760 magnetization      45.3842479

 Broyden mixing:
  rms(total) = 0.17753E+02    rms(broyden)= 0.17752E+02
  rms(prec ) = 0.17984E+02
  weight for this iteration     100.00

 Free energy of the ion-electron system (eV)
  ---------------------------------------------------
  alpha Z        PSCENC =      1717.01503502
  Ewald energy   TEWEN  =    226336.68639598
  -Hartree energ DENC   =   -271657.22689377
  -exchange      EXHF   =         0.00000000
  -V(xc)+E(xc)   XCENC  =      1272.58936120
  PAW double counting   =     40003.38402717   -38825.35607587
  entropy T*S    EENTRO =        -0.08353654
  eigenvalues    EBANDS =     -5475.26978224
  atomic energy  EATOM  =     45874.02969909
  Solvation  Ediel_sol  =         0.00000000
  ---------------------------------------------------
  free energy    TOTEN  =      -754.23176994 eV

  energy without entropy =     -754.14823341  energy(sigma->0) =     -754.19000168


--------------------------------------------------------------------------------------------------------




--------------------------------------- Iteration      1(   6)  ---------------------------------------


    POTLOK:  cpu time    0.1156: real time    0.1270
    SETDIJ:  cpu time    0.0202: real time    0.0202
    EDDIAG:  cpu time    3.0557: real time    3.0654
  RMM-DIIS:  cpu time    8.2441: real time    8.2693
    ORTHCH:  cpu time    0.7232: real time    0.7252
       DOS:  cpu time    0.0009: real time    0.0009
    CHARGE:  cpu time    0.7283: real time    0.7302
    MIXING:  cpu time    0.0029: real time    0.0030
    --------------------------------------------
      LOOP:  cpu time   12.8909: real time   12.9413

 eigenvalue-minimisations  :  7063
 total energy-change (2. order) : 0.1310824E+03  (-0.7289837E+02)
 number of electron     675.0000453 magnetization      51.1891773
 augmentation part      126.5219115 magnetization      39.2810759

 Broyden mixing:
  rms(total) = 0.10788E+02    rms(broyden)= 0.10786E+02
  rms(prec ) = 0.11167E+02
  weight for this iteration     100.00

 eigenvalues of (default mixing * dielectric matrix)
  average eigenvalue GAMMA=   0.9693
  0.9693

 Free energy of the ion-electron system (eV)
  ---------------------------------------------------
  alpha Z        PSCENC =      1717.01503502
  Ewald energy   TEWEN  =    226336.68639598
  -Hartree energ DENC   =   -271930.72095078
  -exchange      EXHF   =         0.00000000
  -V(xc)+E(xc)   XCENC  =      1354.95068639
  PAW double counting   =     47910.47017246   -46796.99388433
  entropy T*S    EENTRO =        -0.07095031
  eigenvalues    EBANDS =     -5088.51559537
  atomic energy  EATOM  =     45874.02969909
  Solvation  Ediel_sol  =         0.00000000
  ---------------------------------------------------
  free energy    TOTEN  =      -623.14939185 eV

  energy without entropy =     -623.07844154  energy(sigma->0) =     -623.11391669


--------------------------------------------------------------------------------------------------------




--------------------------------------- Iteration      1(   7)  ---------------------------------------


    POTLOK:  cpu time    0.1147: real time    0.1154
    SETDIJ:  cpu time    0.0199: real time    0.0199
    EDDIAG:  cpu time    3.0592: real time    3.0673
  RMM-DIIS:  cpu time    8.2495: real time    8.2726
    ORTHCH:  cpu time    0.7216: real time    0.7236
       DOS:  cpu time    0.0009: real time    0.0009
    CHARGE:  cpu time    0.7328: real time    0.7349
    MIXING:  cpu time    0.0029: real time    0.0029
    --------------------------------------------
      LOOP:  cpu time   12.9015: real time   12.9376

 eigenvalue-minimisations  :  7079
 total energy-change (2. order) :-0.1063282E+03  (-0.2937808E+02)
 number of electron     675.0000483 magnetization      48.8266411
 augmentation part      119.7333728 magnetization      38.9052347

 Broyden mixing:
  rms(total) = 0.13352E+02    rms(broyden)= 0.13350E+02
  rms(prec ) = 0.14437E+02
  weight for this iteration     100.00

 eigenvalues of (default mixing * dielectric matrix)
  average eigenvalue GAMMA=   0.8342
  1.3347  0.3336

 Free energy of the ion-electron system (eV)
  ---------------------------------------------------
  alpha Z        PSCENC =      1717.01503502
  Ewald energy   TEWEN  =    226336.68639598
  -Hartree energ DENC   =   -272844.68684736
  -exchange      EXHF   =         0.00000000
  -V(xc)+E(xc)   XCENC  =      1321.86802465
  PAW double counting   =     53287.72921593   -52180.76197959
  entropy T*S    EENTRO =        -0.07508006
  eigenvalues    EBANDS =     -4241.28208999
  atomic energy  EATOM  =     45874.02969909
  Solvation  Ediel_sol  =         0.00000000
  ---------------------------------------------------
  free energy    TOTEN  =      -729.47762632 eV

  energy without entropy =     -729.40254626  energy(sigma->0) =     -729.44008629


--------------------------------------------------------------------------------------------------------




--------------------------------------- Iteration      1(   8)  ---------------------------------------


    POTLOK:  cpu time    0.1153: real time    0.1176
    SETDIJ:  cpu time    0.0200: real time    0.0201
    EDDIAG:  cpu time    3.0724: real time    3.0807
  RMM-DIIS:  cpu time    8.2509: real time    8.2736
    ORTHCH:  cpu time    0.7234: real time    0.7254
       DOS:  cpu time    0.0009: real time    0.0009
    CHARGE:  cpu time    0.7360: real time    0.7379
    MIXING:  cpu time    0.0037: real time    0.0056
    --------------------------------------------
      LOOP:  cpu time   12.9225: real time   12.9617

 eigenvalue-minimisations  :  7040
 total energy-change (2. order) : 0.5234799E+02  (-0.6116751E+01)
 number of electron     675.0000499 magnetization      45.0611035
 augmentation part      119.6063434 magnetization      36.7312859

 Broyden mixing:
  rms(total) = 0.10430E+02    rms(broyden)= 0.10429E+02
  rms(prec ) = 0.11234E+02
  weight for this iteration     100.00

 eigenvalues of (default mixing * dielectric matrix)
  average eigenvalue GAMMA=   0.9069
  2.0050  0.4403  0.2755

 Free energy of the ion-electron system (eV)
  ---------------------------------------------------
  alpha Z        PSCENC =      1717.01503502
  Ewald energy   TEWEN  =    226336.68639598
  -Hartree energ DENC   =   -271977.03806008
  -exchange      EXHF   =         0.00000000
  -V(xc)+E(xc)   XCENC  =      1324.36228635
  PAW double counting   =     56642.27229353   -55546.81283534
  entropy T*S    EENTRO =        -0.07813290
  eigenvalues    EBANDS =     -5047.56631302
  atomic energy  EATOM  =     45874.02969909
  Solvation  Ediel_sol  =         0.00000000
  ---------------------------------------------------
  free energy    TOTEN  =      -677.12963137 eV

  energy without entropy =     -677.05149847  energy(sigma->0) =     -677.09056492


--------------------------------------------------------------------------------------------------------




--------------------------------------- Iteration      1(   9)  ---------------------------------------


    POTLOK:  cpu time    0.1165: real time    0.1209
    SETDIJ:  cpu time    0.0203: real time    0.0203
    EDDIAG:  cpu time    3.0486: real time    3.0817
  RMM-DIIS:  cpu time    8.2397: real time    8.2625
    ORTHCH:  cpu time    0.7200: real time    0.7220
       DOS:  cpu time    0.0009: real time    0.0009
    CHARGE:  cpu time    0.7309: real time    0.7328
    MIXING:  cpu time    0.0034: real time    0.0035
    --------------------------------------------
      LOOP:  cpu time   12.8804: real time   12.9445

 eigenvalue-minimisations  :  7040
 total energy-change (2. order) : 0.4156716E+02  (-0.9287332E+01)
 number of electron     675.0000477 magnetization      42.9252976
 augmentation part      119.0518710 magnetization      33.8796978

 Broyden mixing:
  rms(total) = 0.77197E+01    rms(broyden)= 0.77183E+01
  rms(prec ) = 0.88349E+01
  weight for this iteration     100.00

 eigenvalues of (default mixing * dielectric matrix)
  average eigenvalue GAMMA=   0.8603
  2.2791  0.4727  0.4727  0.2165

 Free energy of the ion-electron system (eV)
  ---------------------------------------------------
  alpha Z        PSCENC =      1717.01503502
  Ewald energy   TEWEN  =    226336.68639598
  -Hartree energ DENC   =   -272388.41239863
  -exchange      EXHF   =         0.00000000
  -V(xc)+E(xc)   XCENC  =      1330.33609185
  PAW double counting   =     61355.36976869   -60278.25250821
  entropy T*S    EENTRO =        -0.07441205
  eigenvalues    EBANDS =     -4582.26014349
  atomic energy  EATOM  =     45874.02969909
  Solvation  Ediel_sol  =         0.00000000
  ---------------------------------------------------
  free energy    TOTEN  =      -635.56247173 eV

  energy without entropy =     -635.48805969  energy(sigma->0) =     -635.52526571


--------------------------------------------------------------------------------------------------------




--------------------------------------- Iteration      1(  10)  ---------------------------------------


    POTLOK:  cpu time    0.1152: real time    0.1159
    SETDIJ:  cpu time    0.0201: real time    0.0201
    EDDIAG:  cpu time    3.0584: real time    3.0669
  RMM-DIIS:  cpu time    8.2092: real time    8.2322
    ORTHCH:  cpu time    0.7263: real time    0.7281
       DOS:  cpu time    0.0009: real time    0.0009
    CHARGE:  cpu time    0.7262: real time    0.7283
    MIXING:  cpu time    0.0035: real time    0.0035
    --------------------------------------------
      LOOP:  cpu time   12.8598: real time   12.8959

 eigenvalue-minimisations  :  7047
 total energy-change (2. order) :-0.2068279E+02  (-0.4441722E+01)
 number of electron     675.0000513 magnetization      42.0821451
 augmentation part      121.5020640 magnetization      34.7422626

 Broyden mixing:
  rms(total) = 0.10415E+02    rms(broyden)= 0.10413E+02
  rms(prec ) = 0.13122E+02
  weight for this iteration     100.00

 eigenvalues of (default mixing * dielectric matrix)
  average eigenvalue GAMMA=   0.7377
  2.3269  0.4982  0.4982  0.2151  0.1503

 Free energy of the ion-electron system (eV)
  ---------------------------------------------------
  alpha Z        PSCENC =      1717.01503502
  Ewald energy   TEWEN  =    226336.68639598
  -Hartree energ DENC   =   -272069.79408835
  -exchange      EXHF   =         0.00000000
  -V(xc)+E(xc)   XCENC  =      1335.71487064
  PAW double counting   =     62644.92389107   -61575.13154982
  entropy T*S    EENTRO =        -0.05332440
  eigenvalues    EBANDS =     -4919.63618797
  atomic energy  EATOM  =     45874.02969909
  Solvation  Ediel_sol  =         0.00000000
  ---------------------------------------------------
  free energy    TOTEN  =      -656.24525873 eV

  energy without entropy =     -656.19193434  energy(sigma->0) =     -656.21859653


--------------------------------------------------------------------------------------------------------




--------------------------------------- Iteration      1(  11)  ---------------------------------------


    POTLOK:  cpu time    0.1163: real time    0.1264
    SETDIJ:  cpu time    0.0200: real time    0.0200
    EDDIAG:  cpu time    3.0594: real time    3.0677
  RMM-DIIS:  cpu time    8.2798: real time    8.3032
    ORTHCH:  cpu time    0.7259: real time    0.7278
       DOS:  cpu time    0.0009: real time    0.0009
    CHARGE:  cpu time    0.7310: real time    0.7327
    MIXING:  cpu time    0.0038: real time    0.0038
    --------------------------------------------
      LOOP:  cpu time   12.9371: real time   12.9825

 eigenvalue-minimisations  :  7087
 total energy-change (2. order) : 0.5579322E+02  (-0.1327841E+01)
 number of electron     675.0000479 magnetization      40.7585169
 augmentation part      120.8223009 magnetization      34.0868787

 Broyden mixing:
  rms(total) = 0.43010E+01    rms(broyden)= 0.42975E+01
  rms(prec ) = 0.53564E+01
  weight for this iteration     100.00

 eigenvalues of (default mixing * dielectric matrix)
  average eigenvalue GAMMA=   0.6854
  2.2071  0.5967  0.5967  0.3601  0.2355  0.1164

 Free energy of the ion-electron system (eV)
  ---------------------------------------------------
  alpha Z        PSCENC =      1717.01503502
  Ewald energy   TEWEN  =    226336.68639598
  -Hartree energ DENC   =   -272061.01918644
  -exchange      EXHF   =         0.00000000
  -V(xc)+E(xc)   XCENC  =      1335.53437718
  PAW double counting   =     62966.29685711   -61897.36354270
  entropy T*S    EENTRO =        -0.07746463
  eigenvalues    EBANDS =     -4871.55421322
  atomic energy  EATOM  =     45874.02969909
  Solvation  Ediel_sol  =         0.00000000
  ---------------------------------------------------
  free energy    TOTEN  =      -600.45204260 eV

  energy without entropy =     -600.37457797  energy(sigma->0) =     -600.41331028


--------------------------------------------------------------------------------------------------------




--------------------------------------- Iteration      1(  12)  ---------------------------------------


    POTLOK:  cpu time    0.1157: real time    0.1164
    SETDIJ:  cpu time    0.0201: real time    0.0201
    EDDIAG:  cpu time    3.0801: real time    3.0888
  RMM-DIIS:  cpu time    8.2294: real time    8.2525
    ORTHCH:  cpu time    0.7191: real time    0.7211
       DOS:  cpu time    0.0009: real time    0.0009
    CHARGE:  cpu time    0.7274: real time    0.7293
    MIXING:  cpu time    0.0041: real time    0.0041
    --------------------------------------------
      LOOP:  cpu time   12.8968: real time   12.9332

 eigenvalue-minimisations  :  7040
 total energy-change (2. order) :-0.1165343E+01  (-0.9404582E+00)
 number of electron     675.0000494 magnetization      40.4063075
 augmentation part      121.2602361 magnetization      33.0778329

 Broyden mixing:
  rms(total) = 0.47086E+01    rms(broyden)= 0.47065E+01
  rms(prec ) = 0.56743E+01
  weight for this iteration     100.00

 eigenvalues of (default mixing * dielectric matrix)
  average eigenvalue GAMMA=   0.6219
  2.0254  0.6097  0.5643  0.5643  0.2440  0.2440  0.1015

 Free energy of the ion-electron system (eV)
  ---------------------------------------------------
  alpha Z        PSCENC =      1717.01503502
  Ewald energy   TEWEN  =    226336.68639598
  -Hartree energ DENC   =   -272022.73896801
  -exchange      EXHF   =         0.00000000
  -V(xc)+E(xc)   XCENC  =      1334.27737378
  PAW double counting   =     62323.02968740   -61254.56442094
  entropy T*S    EENTRO =        -0.05022858
  eigenvalues    EBANDS =     -4909.30195963
  atomic energy  EATOM  =     45874.02969909
  Solvation  Ediel_sol  =         0.00000000
  ---------------------------------------------------
  free energy    TOTEN  =      -601.61738588 eV

  energy without entropy =     -601.56715730  energy(sigma->0) =     -601.59227159


--------------------------------------------------------------------------------------------------------




--------------------------------------- Iteration      1(  13)  ---------------------------------------


    POTLOK:  cpu time    0.1162: real time    0.1177
    SETDIJ:  cpu time    0.0200: real time    0.0201
    EDDIAG:  cpu time    3.0515: real time    3.0596
  RMM-DIIS:  cpu time    8.2648: real time    8.2893
    ORTHCH:  cpu time    0.7222: real time    0.7241
       DOS:  cpu time    0.0008: real time    0.0008
    CHARGE:  cpu time    0.7262: real time    0.7281
    MIXING:  cpu time    0.0041: real time    0.0041
    --------------------------------------------
      LOOP:  cpu time   12.9057: real time   12.9439

 eigenvalue-minimisations  :  7054
 total energy-change (2. order) : 0.7479495E+01  (-0.2683713E+00)
 number of electron     675.0000486 magnetization      39.9232841
 augmentation part      120.9714582 magnetization      31.3492418

 Broyden mixing:
  rms(total) = 0.30485E+01    rms(broyden)= 0.30476E+01
  rms(prec ) = 0.33598E+01
  weight for this iteration     100.00

 eigenvalues of (default mixing * dielectric matrix)
  average eigenvalue GAMMA=   0.5787
  1.9684  0.5784  0.5784  0.6022  0.2930  0.2930  0.2119  0.1043

 Free energy of the ion-electron system (eV)
  ---------------------------------------------------
  alpha Z        PSCENC =      1717.01503502
  Ewald energy   TEWEN  =    226336.68639598
  -Hartree energ DENC   =   -271936.65486942
  -exchange      EXHF   =         0.00000000
  -V(xc)+E(xc)   XCENC  =      1332.85519447
  PAW double counting   =     61610.05332778   -60539.77232848
  entropy T*S    EENTRO =        -0.07009802
  eigenvalues    EBANDS =     -4988.28024699
  atomic energy  EATOM  =     45874.02969909
  Solvation  Ediel_sol  =         0.00000000
  ---------------------------------------------------
  free energy    TOTEN  =      -594.13789055 eV

  energy without entropy =     -594.06779253  energy(sigma->0) =     -594.10284154


--------------------------------------------------------------------------------------------------------




--------------------------------------- Iteration      1(  14)  ---------------------------------------


    POTLOK:  cpu time    0.1155: real time    0.1161
    SETDIJ:  cpu time    0.0201: real time    0.0201
    EDDIAG:  cpu time    3.0478: real time    3.0562
  RMM-DIIS:  cpu time    8.2488: real time    8.2723
    ORTHCH:  cpu time    0.7197: real time    0.7456
       DOS:  cpu time    0.0009: real time    0.0009
    CHARGE:  cpu time    0.7295: real time    0.7312
    MIXING:  cpu time    0.0045: real time    0.0045
    --------------------------------------------
      LOOP:  cpu time   12.8867: real time   12.9469

 eigenvalue-minimisations  :  7040
 total energy-change (2. order) : 0.1830553E+00  (-0.1350895E+00)
 number of electron     675.0000487 magnetization      39.4693134
 augmentation part      121.0737330 magnetization      31.5080202

 Broyden mixing:
  rms(total) = 0.26596E+01    rms(broyden)= 0.26593E+01
  rms(prec ) = 0.28695E+01
  weight for this iteration     100.00

 eigenvalues of (default mixing * dielectric matrix)
  average eigenvalue GAMMA=   0.5519
  1.8801  0.6290  0.6290  0.5633  0.3641  0.3641  0.2172  0.2172  0.1032

 Free energy of the ion-electron system (eV)
  ---------------------------------------------------
  alpha Z        PSCENC =      1717.01503502
  Ewald energy   TEWEN  =    226336.68639598
  -Hartree energ DENC   =   -271918.12915072
  -exchange      EXHF   =         0.00000000
  -V(xc)+E(xc)   XCENC  =      1331.33389991
  PAW double counting   =     61263.02647218   -60192.32918564
  entropy T*S    EENTRO =        -0.06747345
  eigenvalues    EBANDS =     -5005.52052757
  atomic energy  EATOM  =     45874.02969909
  Solvation  Ediel_sol  =         0.00000000
  ---------------------------------------------------
  free energy    TOTEN  =      -593.95483521 eV

  energy without entropy =     -593.88736176  energy(sigma->0) =     -593.92109848


--------------------------------------------------------------------------------------------------------




--------------------------------------- Iteration      1(  15)  ---------------------------------------


    POTLOK:  cpu time    0.1148: real time    0.1154
    SETDIJ:  cpu time    0.0201: real time    0.0202
    EDDIAG:  cpu time    3.0707: real time    3.0792
  RMM-DIIS:  cpu time    8.2433: real time    8.2662
    ORTHCH:  cpu time    0.7209: real time    0.7227
       DOS:  cpu time    0.0009: real time    0.0009
    CHARGE:  cpu time    0.7313: real time    0.7337
    MIXING:  cpu time    0.0053: real time    0.0053
    --------------------------------------------
      LOOP:  cpu time   12.9072: real time   12.9436

 eigenvalue-minimisations  :  7046
 total energy-change (2. order) :-0.8862350E+00  (-0.5118076E-01)
 number of electron     675.0000489 magnetization      38.3164169
 augmentation part      121.0456066 magnetization      30.1207294

 Broyden mixing:
  rms(total) = 0.22236E+01    rms(broyden)= 0.22235E+01
  rms(prec ) = 0.24179E+01
  weight for this iteration     100.00

[...]
      8.021906  1.219056 11.284596            0           0           0  
     11.210678  1.202491 11.338142            0           0           0  
      7.996584  4.480200  8.035044            0           0           0  
     11.207051  4.468813  8.124021            0           0           0  
      9.553841  0.000000 13.260048    -0.001601   -0.020782   -0.000322  
      6.434646  0.000000 13.232711    -0.003653   -0.999776   -0.000383  
 
   5 f  =    5.507682 THz    34.605789 2PiTHz  183.716502 cm-1    22.777951 meV
             X         Y         Z           dx          dy          dz
      1.601066  3.235121  4.852682            0           0           0  
      4.803199  3.235121  4.852682            0           0           0  
      1.601066  0.000000  1.617561            0           0           0  
      4.803199  0.000000  1.617561            0           0           0  
      0.000000  3.235121  1.617561            0           0           0  
      3.202133  3.235121  1.617561            0           0           0  
      0.000000  0.000000  4.852682            0           0           0  
      3.202133  0.000000  4.852682            0           0           0  
      1.563026  3.235121 11.438782            0           0           0  
      4.810268  3.235121 11.267871            0           0           0  
      1.602296  0.000000  8.062194            0           0           0  
      4.829192  0.000000  8.091015            0           0           0  
      0.029136  3.235121  8.125494            0           0           0  
      3.212383  3.235121  8.077957            0           0           0  
     12.746649  0.000000 11.232671            0           0           0  
      3.197706  0.000000 11.241033            0           0           0  
      0.000000  3.235121  3.613243            0           0           0  
      3.202133  3.235121  3.613243            0           0           0  
      0.000000  0.000000  0.378121            0           0           0  
      3.202133  0.000000  0.378121            0           0           0  
      1.601066  5.230803  4.852682            0           0           0  
      4.803199  5.230803  4.852682            0           0           0  
      1.601066  1.995682  1.617561            0           0           0  
      4.803199  1.995682  1.617561            0           0           0  
      0.000000  3.235121  6.092122            0           0           0  
      3.202133  3.235121  6.092122            0           0           0  
      0.000000  0.000000  2.857000            0           0           0  
      3.202133  0.000000  2.857000            0           0           0  
      1.601066  1.239440  4.852682            0           0           0  
      4.803199  1.239440  4.852682            0           0           0  
      1.601066  4.474561  1.617561            0           0           0  
      4.803199  4.474561  1.617561            0           0           0  
      0.236858  3.235121 10.038603            0           0           0  
      3.190547  3.235121 10.050168            0           0           0  
     12.800832  0.000000  6.840974            0           0           0  
      3.211851  0.000000  6.843339            0           0           0  
      1.591134  5.259446 11.417530            0           0           0  
      4.802566  5.235241 11.311388            0           0           0  
      1.618048  1.994249  8.029660            0           0           0  
      4.813910  1.994005  8.086761            0           0           0  
      0.517203  3.235121 12.883043            0           0           0  
      3.240767  3.235121 12.451116            0           0           0  
     12.799268  0.000000  9.295833            0           0           0  
      3.207436  0.000000  9.297383            0           0           0  
      1.591134  1.210797 11.417530            0           0           0  
      4.802566  1.235002 11.311388            0           0           0  
      1.618048  4.475994  8.029660            0           0           0  
      4.813910  4.476238  8.086761            0           0           0  
      8.005332  3.235121  4.852682            0           0           0  
     11.207465  3.235121  4.852682            0           0           0  
      8.005332  0.000000  1.617561            0           0           0  
     11.207465  0.000000  1.617561            0           0           0  
      6.404266  3.235121  1.617561            0           0           0  
      9.606399  3.235121  1.617561            0           0           0  
      6.404266  0.000000  4.852682            0           0           0  
      9.606399  0.000000  4.852682            0           0           0  
      8.045071  3.235121 11.402633            0           0           0  
      8.011726  0.000000  8.101923            0           0           0  
     11.185210  0.000000  8.093541            0           0           0  
      6.405746  3.235121  8.074744            0           0           0  
      9.586693  3.235121  8.126759            0           0           0  
      6.417041  0.000000 11.439925            0           0           0  
      9.695869  0.000000 11.495022            0           0           0  
      6.404266  3.235121  3.613243            0           0           0  
      9.606399  3.235121  3.613243            0           0           0  
      6.404266  0.000000  0.378121            0           0           0  
      9.606399  0.000000  0.378121            0           0           0  
      8.005332  5.230803  4.852682            0           0           0  
     11.207465  5.230803  4.852682            0           0           0  
      8.005332  1.995682  1.617561            0           0           0  
     11.207465  1.995682  1.617561            0           0           0  
      6.404266  3.235121  6.092122            0           0           0  
      9.606399  3.235121  6.092122            0           0           0  
      6.404266  0.000000  2.857000            0           0           0  
      9.606399  0.000000  2.857000            0           0           0  
      8.005332  1.239440  4.852682            0           0           0  
     11.207465  1.239440  4.852682            0           0           0  
      8.005332  4.474561  1.617561            0           0           0  
     11.207465  4.474561  1.617561            0           0           0  
      6.415829  3.235121 10.043114            0           0           0  
      9.396088  3.235121 10.029762            0           0           0  
      6.409982  0.000000  6.851480            0           0           0  
      9.606854  0.000000  6.850878            0           0           0  
      8.021906  5.251187 11.284596            0           0           0  
     11.210678  5.267752 11.338142            0           0           0  
      7.996584  1.990043  8.035044            0           0           0  
     11.207051  2.001430  8.124021            0           0           0  
      6.386373  3.235121 12.434024            0           0           0  
      9.086113  3.235121 12.853097            0           0           0  
      6.412886  0.000000  9.342948            0           0           0  
      9.612122  0.000000  9.356267            0           0           0  
      8.021906  1.219056 11.284596            0           0           0  
     11.210678  1.202491 11.338142            0           0           0  
      7.996584  4.480200  8.035044            0           0           0  
     11.207051  4.468813  8.124021            0           0           0  
      9.553841  0.000000 13.260048    -0.994414    0.008642   -0.105119  
      6.434646  0.000000 13.232711    -0.003103    0.001459   -0.002063  
 
   6 f  =    4.318614 THz    27.134650 2PiTHz  144.053442 cm-1    17.860357 meV
             X         Y         Z           dx          dy          dz
      1.601066  3.235121  4.852682            0           0           0  
      4.803199  3.235121  4.852682            0           0           0  
      1.601066  0.000000  1.617561            0           0           0  
      4.803199  0.000000  1.617561            0           0           0  
      0.000000  3.235121  1.617561            0           0           0  
      3.202133  3.235121  1.617561            0           0           0  
      0.000000  0.000000  4.852682            0           0           0  
      3.202133  0.000000  4.852682            0           0           0  
      1.563026  3.235121 11.438782            0           0           0  
      4.810268  3.235121 11.267871            0           0           0  
      1.602296  0.000000  8.062194            0           0           0  
      4.829192  0.000000  8.091015            0           0           0  
      0.029136  3.235121  8.125494            0           0           0  
      3.212383  3.235121  8.077957            0           0           0  
     12.746649  0.000000 11.232671            0           0           0  
      3.197706  0.000000 11.241033            0           0           0  
      0.000000  3.235121  3.613243            0           0           0  
      3.202133  3.235121  3.613243            0           0           0  
      0.000000  0.000000  0.378121            0           0           0  
      3.202133  0.000000  0.378121            0           0           0  
      1.601066  5.230803  4.852682            0           0           0  
      4.803199  5.230803  4.852682            0           0           0  
      1.601066  1.995682  1.617561            0           0           0  
      4.803199  1.995682  1.617561            0           0           0  
      0.000000  3.235121  6.092122            0           0           0  
      3.202133  3.235121  6.092122            0           0           0  
      0.000000  0.000000  2.857000            0           0           0  
      3.202133  0.000000  2.857000            0           0           0  
      1.601066  1.239440  4.852682            0           0           0  
      4.803199  1.239440  4.852682            0           0           0  
      1.601066  4.474561  1.617561            0           0           0  
      4.803199  4.474561  1.617561            0           0           0  
      0.236858  3.235121 10.038603            0           0           0  
      3.190547  3.235121 10.050168            0           0           0  
     12.800832  0.000000  6.840974            0           0           0  
      3.211851  0.000000  6.843339            0           0           0  
      1.591134  5.259446 11.417530            0           0           0  
      4.802566  5.235241 11.311388            0           0           0  
      1.618048  1.994249  8.029660            0           0           0  
      4.813910  1.994005  8.086761            0           0           0  
      0.517203  3.235121 12.883043            0           0           0  
      3.240767  3.235121 12.451116            0           0           0  
     12.799268  0.000000  9.295833            0           0           0  
      3.207436  0.000000  9.297383            0           0           0  
      1.591134  1.210797 11.417530            0           0           0  
      4.802566  1.235002 11.311388            0           0           0  
      1.618048  4.475994  8.029660            0           0           0  
      4.813910  4.476238  8.086761            0           0           0  
      8.005332  3.235121  4.852682            0           0           0  
     11.207465  3.235121  4.852682            0           0           0  
      8.005332  0.000000  1.617561            0           0           0  
     11.207465  0.000000  1.617561            0           0           0  
      6.404266  3.235121  1.617561            0           0           0  
      9.606399  3.235121  1.617561            0           0           0  
      6.404266  0.000000  4.852682            0           0           0  
      9.606399  0.000000  4.852682            0           0           0  
      8.045071  3.235121 11.402633            0           0           0  
      8.011726  0.000000  8.101923            0           0           0  
     11.185210  0.000000  8.093541            0           0           0  
      6.405746  3.235121  8.074744            0           0           0  
      9.586693  3.235121  8.126759            0           0           0  
      6.417041  0.000000 11.439925            0           0           0  
      9.695869  0.000000 11.495022            0           0           0  
      6.404266  3.235121  3.613243            0           0           0  
      9.606399  3.235121  3.613243            0           0           0  
      6.404266  0.000000  0.378121            0           0           0  
      9.606399  0.000000  0.378121            0           0           0  
      8.005332  5.230803  4.852682            0           0           0  
     11.207465  5.230803  4.852682            0           0           0  
      8.005332  1.995682  1.617561            0           0           0  
     11.207465  1.995682  1.617561            0           0           0  
      6.404266  3.235121  6.092122            0           0           0  
      9.606399  3.235121  6.092122            0           0           0  
      6.404266  0.000000  2.857000            0           0           0  
      9.606399  0.000000  2.857000            0           0           0  
      8.005332  1.239440  4.852682            0           0           0  
     11.207465  1.239440  4.852682            0           0           0  
      8.005332  4.474561  1.617561            0           0           0  
     11.207465  4.474561  1.617561            0           0           0  
      6.415829  3.235121 10.043114            0           0           0  
      9.396088  3.235121 10.029762            0           0           0  
      6.409982  0.000000  6.851480            0           0           0  
      9.606854  0.000000  6.850878            0           0           0  
      8.021906  5.251187 11.284596            0           0           0  
     11.210678  5.267752 11.338142            0           0           0  
      7.996584  1.990043  8.035044            0           0           0  
     11.207051  2.001430  8.124021            0           0           0  
      6.386373  3.235121 12.434024            0           0           0  
      9.086113  3.235121 12.853097            0           0           0  
      6.412886  0.000000  9.342948            0           0           0  
      9.612122  0.000000  9.356267            0           0           0  
      8.021906  1.219056 11.284596            0           0           0  
     11.210678  1.202491 11.338142            0           0           0  
      7.996584  4.480200  8.035044            0           0           0  
     11.207051  4.468813  8.124021            0           0           0  
      9.553841  0.000000 13.260048    -0.008502   -0.999746   -0.001450  
      6.434646  0.000000 13.232711    -0.000615    0.020798   -0.000050  
 
 Finite differences POTIM=  1.500000000000000E-002
  LATTYP: Found a simple orthorhombic cell.
 ALAT       =     6.4702430000
 B/A-ratio  =     1.9796060210
 C/A-ratio  =     4.0000000000
  
  Lattice vectors:
  
 A1 = (   0.0000000000,  -6.4702430000,   0.0000000000)
 A2 = ( -12.8085320000,   0.0000000000,   0.0000000000)
 A3 = (   0.0000000000,   0.0000000000, -25.8809720000)


Analysis of symmetry for initial positions (statically):
=====================================================================
 Subroutine PRICEL returns:
 Original cell was already a primitive cell.
 

 Routine SETGRP: Setting up the symmetry group for a 
 simple orthorhombic supercell.


 Subroutine GETGRP returns: Found  2 space group operations
 (whereof  2 operations were pure point group operations)
 out of a pool of  8 trial point group operations.


The static configuration has the point symmetry C_1h.


Analysis of symmetry for dynamics (positions and initial velocities):
=====================================================================
 Subroutine PRICEL returns:
 Original cell was already a primitive cell.
 

 Routine SETGRP: Setting up the symmetry group for a 
 simple orthorhombic supercell.


 Subroutine GETGRP returns: Found  2 space group operations
 (whereof  2 operations were pure point group operations)
 out of a pool of  8 trial point group operations.


The dynamic configuration has the point symmetry C_1h.


Analysis of constrained symmetry for selective dynamics:
=====================================================================
 Subroutine PRICEL returns:
 Original cell was already a primitive cell.
 

 Routine SETGRP: Setting up the symmetry group for a 
 simple orthorhombic supercell.


 Subroutine GETGRP returns: Found  2 space group operations
 (whereof  2 operations were pure point group operations)
 out of a pool of  8 trial point group operations.


The constrained configuration has the point symmetry C_1h.


Analysis of structural, dynamic, and magnetic symmetry:
=====================================================================
 Subroutine PRICEL returns:
 Original cell was already a primitive cell.
 

 Routine SETGRP: Setting up the symmetry group for a 
 simple orthorhombic supercell.


 Subroutine GETGRP returns: Found  2 space group operations
 (whereof  2 operations were pure point group operations)
 out of a pool of  8 trial point group operations.


The magnetic configuration has the point symmetry C_1h.


 Subroutine INISYM returns: Found  2 space group operations
 (whereof  2 operations are pure point group operations),
 and found     1 'primitive' translations

 
 KPOINTS: Automatic mesh                          

Automatic generation of k-mesh.
Space group operators:
 irot       det(A)        alpha          n_x          n_y          n_z        tau_x        tau_y        tau_z
    1     1.000000     0.000001     1.000000     0.000000     0.000000     0.000000     0.000000     0.000000
    2    -1.000000   180.000000     0.000000     1.000000     0.000000     0.000000     0.000000     0.000000
 
 Subroutine IBZKPT returns following result:
 ===========================================
 
 Found      4 irreducible k-points:
 
 Following reciprocal coordinates:
            Coordinates               Weight
  0.000000  0.000000  0.000000      1.000000
  0.333333  0.000000  0.000000      2.000000
  0.000000  0.333333  0.000000      2.000000
  0.333333  0.333333  0.000000      4.000000
 
 Following cartesian coordinates:
            Coordinates               Weight
  0.000000  0.000000  0.000000      1.000000
  0.026024  0.000000  0.000000      2.000000
  0.000000  0.051518  0.000000      2.000000
  0.026024  0.051518  0.000000      4.000000
 
     LOOP+:  cpu time  143.8591: real time  144.3328
    4ORBIT:  cpu time    0.0000: real time    0.0000

 total amount of memory used by VASP MPI-rank0   171889. kBytes
=======================================================================

   base      :      30000. kBytes
   nonlr-proj:      19273. kBytes
   fftplans  :       4196. kBytes
   grid      :      37119. kBytes
   one-center:       3017. kBytes
   wavefun   :      78284. kBytes
 
  
  
 General timing and accounting informations for this job:
 ========================================================
  
                  Total CPU time used (sec):     3068.797
                            User time (sec):     3002.551
                          System time (sec):       66.246
                         Elapsed time (sec):     3082.069
  
                   Maximum memory used (kb):      426952.
                   Average memory used (kb):           0.
  
                          Minor page faults:      1931703
                          Major page faults:          181
                 Voluntary context switches:         6845
