 vasp.5.4.4.18Apr17-6-g9f103f2a35 (build Feb 25 2019 10:51:38) complex          
  
 executed on             LinuxIFC date 2022.11.21  15:41:59
 running on   40 total cores
 each image running on    8 cores
 distrk:  each k-point on    8 cores,    1 groups
 distr:  one band on NCORES_PER_BAND=   2 cores,    4 groups


--------------------------------------------------------------------------------------------------------


 INCAR:
 POTCAR:    PAW_PBE Ir 06Sep2000                  
 POTCAR:    PAW_PBE O 08Apr2002                   
 POTCAR:    PAW_PBE Ir 06Sep2000                  
 POTCAR:    PAW_PBE O 08Apr2002                   
 POTCAR:    PAW_PBE Ir 06Sep2000                  
   VRHFIN =Ir: s1d8                                                             
   LEXCH  = PE                                                                  
   EATOM  =   560.1833 eV,   41.1723 Ry                                         
                                                                                
   TITEL  = PAW_PBE Ir 06Sep2000                                                
   LULTRA =        F    use ultrasoft PP ?                                      
   IUNSCR =        1    unscreen: 0-lin 1-nonlin 2-no                           
   RPACOR =    2.250    partial core radius                                     
   POMASS =  192.220; ZVAL   =    9.000    mass and valenz                      
   RCORE  =    2.600    outmost cutoff radius                                   
   RWIGS  =    2.690; RWIGS  =    1.423    wigner-seitz radius (au A)           
   ENMAX  =  210.864; ENMIN  =  158.148 eV                                      
   RCLOC  =    1.857    cutoff for local pot                                    
   LCOR   =        T    correct aug charges                                     
   LPAW   =        T    paw PP                                                  
   EAUG   =  318.962                                                            
   DEXC   =    0.000                                                            
   RMAX   =    2.667    core radius for proj-oper                               
   RAUG   =    1.300    factor for augmentation sphere                          
   RDEP   =    2.748    radius for radial grids                                 
   RDEPT  =    2.300    core radius for aug-charge                              
                                                                                
   Atomic configuration                                                         
   16 entries                                                                   
     n  l   j            E        occ.                                          
     1  0  0.50    -76100.0449   2.0000                                         
     2  0  0.50    -13308.1683   2.0000                                         
     2  1  1.50    -11558.0021   6.0000                                         
     3  0  0.50     -3110.7274   2.0000                                         
     3  1  1.50     -2599.2109   6.0000                                         
     3  2  2.50     -2037.1515  10.0000                                         
     4  0  0.50      -661.6001   2.0000                                         
     4  1  1.50      -493.8981   6.0000                                         
     4  2  2.50      -288.1909  10.0000                                         
     4  3  3.50       -59.5718  14.0000                                         
     5  0  0.50       -95.3879   2.0000                                         
     5  1  1.50       -52.2747   6.0000                                         
     5  2  2.50        -5.4180   8.0000                                         
     6  0  0.50        -5.5479   1.0000                                         
     6  1  1.50        -6.8029   0.0000                                         
     5  3  2.50        -1.3606   0.0000                                         
   Description                                                                  
     l       E           TYP  RCUT    TYP  RCUT                                 
     2     -5.4179967     23  2.600                                             
     2     -6.7785793     23  2.600                                             
     0     -5.5478636     23  2.600                                             
     0      2.2542272     23  2.600                                             
     1     -2.7211652     23  2.600                                             
     1     20.4087390     23  2.600                                             
  local pseudopotential read in
  partial core-charges read in
  partial kinetic energy density read in
  atomic valenz-charges read in
  non local Contribution for L=           2  read in
    real space projection operators read in
  non local Contribution for L=           2  read in
    real space projection operators read in
  non local Contribution for L=           0  read in
    real space projection operators read in
  non local Contribution for L=           0  read in
    real space projection operators read in
  non local Contribution for L=           1  read in
    real space projection operators read in
  non local Contribution for L=           1  read in
    real space projection operators read in
    PAW grid and wavefunctions read in
 
   number of l-projection  operators is LMAX  =           6
   number of lm-projection operators is LMMAX =          18
 
 POTCAR:    PAW_PBE O 08Apr2002                   
   VRHFIN =O: s2p4                                                              
   LEXCH  = PE                                                                  
   EATOM  =   432.3788 eV,   31.7789 Ry                                         
                                                                                
   TITEL  = PAW_PBE O 08Apr2002                                                 
   LULTRA =        F    use ultrasoft PP ?                                      
   IUNSCR =        1    unscreen: 0-lin 1-nonlin 2-no                           
   RPACOR =    1.200    partial core radius                                     
   POMASS =   16.000; ZVAL   =    6.000    mass and valenz                      
   RCORE  =    1.520    outmost cutoff radius                                   
   RWIGS  =    1.550; RWIGS  =    0.820    wigner-seitz radius (au A)           
   ENMAX  =  400.000; ENMIN  =  300.000 eV                                      
   ICORE  =        2    local potential                                         
   LCOR   =        T    correct aug charges                                     
   LPAW   =        T    paw PP                                                  
   EAUG   =  605.392                                                            
   DEXC   =    0.000                                                            
   RMAX   =    1.553    core radius for proj-oper                               
   RAUG   =    1.300    factor for augmentation sphere                          
   RDEP   =    1.550    radius for radial grids                                 
   RDEPT  =    1.329    core radius for aug-charge                              
                                                                                
   Atomic configuration                                                         
    4 entries                                                                   
     n  l   j            E        occ.                                          
     1  0  0.50      -514.6923   2.0000                                         
     2  0  0.50       -23.9615   2.0000                                         
     2  1  0.50        -9.0305   4.0000                                         
     3  2  1.50        -9.5241   0.0000                                         
   Description                                                                  
     l       E           TYP  RCUT    TYP  RCUT                                 
     0    -23.9615318     23  1.200                                             
     0     -9.5240782     23  1.200                                             
     1     -9.0304911     23  1.520                                             
     1      8.1634956     23  1.520                                             
     2     -9.5240782      7  1.500                                             
  local pseudopotential read in
  partial core-charges read in
  partial kinetic energy density read in
  kinetic energy density of atom read in
  atomic valenz-charges read in
  non local Contribution for L=           0  read in
    real space projection operators read in
  non local Contribution for L=           0  read in
    real space projection operators read in
  non local Contribution for L=           1  read in
    real space projection operators read in
  non local Contribution for L=           1  read in
    real space projection operators read in
    PAW grid and wavefunctions read in
 
   number of l-projection  operators is LMAX  =           4
   number of lm-projection operators is LMMAX =           8
 
 POTCAR:    PAW_PBE Ir 06Sep2000                  
   VRHFIN =Ir: s1d8                                                             
   LEXCH  = PE                                                                  
   EATOM  =   560.1833 eV,   41.1723 Ry                                         
                                                                                
   TITEL  = PAW_PBE Ir 06Sep2000                                                
   LULTRA =        F    use ultrasoft PP ?                                      
   IUNSCR =        1    unscreen: 0-lin 1-nonlin 2-no                           
   RPACOR =    2.250    partial core radius                                     
   POMASS =  192.220; ZVAL   =    9.000    mass and valenz                      
   RCORE  =    2.600    outmost cutoff radius                                   
   RWIGS  =    2.690; RWIGS  =    1.423    wigner-seitz radius (au A)           
   ENMAX  =  210.864; ENMIN  =  158.148 eV                                      
   RCLOC  =    1.857    cutoff for local pot                                    
   LCOR   =        T    correct aug charges                                     
   LPAW   =        T    paw PP                                                  
   EAUG   =  318.962                                                            
   DEXC   =    0.000                                                            
   RMAX   =    2.667    core radius for proj-oper                               
   RAUG   =    1.300    factor for augmentation sphere                          
   RDEP   =    2.748    radius for radial grids                                 
   RDEPT  =    2.300    core radius for aug-charge                              
                                                                                
   Atomic configuration                                                         
   16 entries                                                                   
     n  l   j            E        occ.                                          
     1  0  0.50    -76100.0449   2.0000                                         
     2  0  0.50    -13308.1683   2.0000                                         
     2  1  1.50    -11558.0021   6.0000                                         
     3  0  0.50     -3110.7274   2.0000                                         
     3  1  1.50     -2599.2109   6.0000                                         
     3  2  2.50     -2037.1515  10.0000                                         
     4  0  0.50      -661.6001   2.0000                                         
     4  1  1.50      -493.8981   6.0000                                         
     4  2  2.50      -288.1909  10.0000                                         
     4  3  3.50       -59.5718  14.0000                                         
     5  0  0.50       -95.3879   2.0000                                         
     5  1  1.50       -52.2747   6.0000                                         
     5  2  2.50        -5.4180   8.0000                                         
     6  0  0.50        -5.5479   1.0000                                         
     6  1  1.50        -6.8029   0.0000                                         
     5  3  2.50        -1.3606   0.0000                                         
   Description                                                                  
     l       E           TYP  RCUT    TYP  RCUT                                 
     2     -5.4179967     23  2.600                                             
     2     -6.7785793     23  2.600                                             
     0     -5.5478636     23  2.600                                             
     0      2.2542272     23  2.600                                             
     1     -2.7211652     23  2.600                                             
     1     20.4087390     23  2.600                                             
  local pseudopotential read in
  partial core-charges read in
  partial kinetic energy density read in
  atomic valenz-charges read in
  non local Contribution for L=           2  read in
    real space projection operators read in
  non local Contribution for L=           2  read in
    real space projection operators read in
  non local Contribution for L=           0  read in
    real space projection operators read in
  non local Contribution for L=           0  read in
    real space projection operators read in
  non local Contribution for L=           1  read in
    real space projection operators read in
  non local Contribution for L=           1  read in
    real space projection operators read in
    PAW grid and wavefunctions read in
 
   number of l-projection  operators is LMAX  =           6
   number of lm-projection operators is LMMAX =          18
 
 POTCAR:    PAW_PBE O 08Apr2002                   
   VRHFIN =O: s2p4                                                              
   LEXCH  = PE                                                                  
   EATOM  =   432.3788 eV,   31.7789 Ry                                         
                                                                                
   TITEL  = PAW_PBE O 08Apr2002                                                 
   LULTRA =        F    use ultrasoft PP ?                                      
   IUNSCR =        1    unscreen: 0-lin 1-nonlin 2-no                           
   RPACOR =    1.200    partial core radius                                     
   POMASS =   16.000; ZVAL   =    6.000    mass and valenz                      
   RCORE  =    1.520    outmost cutoff radius                                   
   RWIGS  =    1.550; RWIGS  =    0.820    wigner-seitz radius (au A)           
   ENMAX  =  400.000; ENMIN  =  300.000 eV                                      
   ICORE  =        2    local potential                                         
   LCOR   =        T    correct aug charges                                     
   LPAW   =        T    paw PP                                                  
   EAUG   =  605.392                                                            
   DEXC   =    0.000                                                            
   RMAX   =    1.553    core radius for proj-oper                               
   RAUG   =    1.300    factor for augmentation sphere                          
   RDEP   =    1.550    radius for radial grids                                 
   RDEPT  =    1.329    core radius for aug-charge                              
                                                                                
   Atomic configuration                                                         
    4 entries                                                                   
     n  l   j            E        occ.                                          
     1  0  0.50      -514.6923   2.0000                                         
     2  0  0.50       -23.9615   2.0000                                         
     2  1  0.50        -9.0305   4.0000                                         
     3  2  1.50        -9.5241   0.0000                                         
   Description                                                                  
     l       E           TYP  RCUT    TYP  RCUT                                 
     0    -23.9615318     23  1.200                                             
     0     -9.5240782     23  1.200                                             
     1     -9.0304911     23  1.520                                             
     1      8.1634956     23  1.520                                             
     2     -9.5240782      7  1.500                                             
  local pseudopotential read in
  partial core-charges read in
  partial kinetic energy density read in
  kinetic energy density of atom read in
  atomic valenz-charges read in
  non local Contribution for L=           0  read in
    real space projection operators read in
  non local Contribution for L=           0  read in
    real space projection operators read in
  non local Contribution for L=           1  read in
    real space projection operators read in
  non local Contribution for L=           1  read in
    real space projection operators read in
    PAW grid and wavefunctions read in
 
   number of l-projection  operators is LMAX  =           4
   number of lm-projection operators is LMMAX =           8
 
 Optimization of the real space projectors (new method)

 maximal supplied QI-value         = 14.36
 optimisation between [QCUT,QGAM] = [ 11.35, 22.84] = [ 36.05,146.02] Ry 
 Optimized for a Real-space Cutoff    1.52 Angstroem

   l    n(q)    QCUT    max X(q) W(low)/X(q) W(high)/X(q)  e(spline) 
   2      9    11.346   134.116    0.47E-03    0.13E-03    0.92E-06
   2      9    11.346   130.192    0.47E-03    0.13E-03    0.92E-06
   0     10    11.346    60.310    0.74E-04    0.13E-03    0.69E-06
   0     10    11.346    39.218    0.68E-04    0.12E-03    0.65E-06
   1     10    11.346    18.439    0.15E-03    0.34E-04    0.20E-06
   1     10    11.346    12.760    0.12E-03    0.31E-04    0.16E-06
 Optimization of the real space projectors (new method)

 maximal supplied QI-value         = 24.76
 optimisation between [QCUT,QGAM] = [ 11.39, 22.77] = [ 36.31,145.25] Ry 
 Optimized for a Real-space Cutoff    1.00 Angstroem

   l    n(q)    QCUT    max X(q) W(low)/X(q) W(high)/X(q)  e(spline) 
   0      7    11.387    20.381    0.39E-03    0.13E-02    0.15E-06
   0      7    11.387    15.268    0.42E-03    0.14E-02    0.17E-06
   1      6    11.387     5.964    0.41E-03    0.11E-02    0.17E-06
   1      6    11.387     5.382    0.39E-03    0.87E-03    0.15E-06
 Optimization of the real space projectors (new method)

 maximal supplied QI-value         = 14.36
 optimisation between [QCUT,QGAM] = [ 11.35, 22.84] = [ 36.05,146.02] Ry 
 Optimized for a Real-space Cutoff    1.52 Angstroem

   l    n(q)    QCUT    max X(q) W(low)/X(q) W(high)/X(q)  e(spline) 
   2      9    11.346   134.116    0.47E-03    0.13E-03    0.92E-06
   2      9    11.346   130.192    0.47E-03    0.13E-03    0.92E-06
   0     10    11.346    60.310    0.74E-04    0.13E-03    0.69E-06
   0     10    11.346    39.218    0.68E-04    0.12E-03    0.65E-06
   1     10    11.346    18.439    0.15E-03    0.34E-04    0.20E-06
   1     10    11.346    12.760    0.12E-03    0.31E-04    0.16E-06
 Optimization of the real space projectors (new method)

 maximal supplied QI-value         = 24.76
 optimisation between [QCUT,QGAM] = [ 11.39, 22.77] = [ 36.31,145.25] Ry 
 Optimized for a Real-space Cutoff    1.00 Angstroem

   l    n(q)    QCUT    max X(q) W(low)/X(q) W(high)/X(q)  e(spline) 
   0      7    11.387    20.381    0.39E-03    0.13E-02    0.15E-06
   0      7    11.387    15.268    0.42E-03    0.14E-02    0.17E-06
   1      6    11.387     5.964    0.41E-03    0.11E-02    0.17E-06
   1      6    11.387     5.382    0.39E-03    0.87E-03    0.15E-06

 ----------------------------------------------------------------------------- 
|                                                                             |
|  ADVICE TO THIS USER RUNNING 'VASP/VAMP'   (HEAR YOUR MASTER'S VOICE ...):  |
|                                                                             |
|      You enforced a specific xc-type in the INCAR file,                     |
|      a different type was found on the POTCAR file                          |
|          I HOPE YOU KNOW, WHAT YOU ARE  DOING                               |
|                                                                             |
 ----------------------------------------------------------------------------- 

  PAW_PBE Ir 06Sep2000                  :
 energy of atom  1       EATOM= -560.1833
 kinetic energy error for atom=    0.0018 (will be added to EATOM!!)
  PAW_PBE O 08Apr2002                   :
 energy of atom  2       EATOM= -432.3788
 kinetic energy error for atom=    0.0224 (will be added to EATOM!!)
  PAW_PBE Ir 06Sep2000                  :
 energy of atom  3       EATOM= -560.1833
 kinetic energy error for atom=    0.0018 (will be added to EATOM!!)
  PAW_PBE O 08Apr2002                   :
 energy of atom  4       EATOM= -432.3788
 kinetic energy error for atom=    0.0224 (will be added to EATOM!!)
 
 
 POSCAR: Ir  O Ir  O                             
  positions in cartesian coordinates
  No initial velocities read in
 exchange correlation table for  LEXCH =        9
   RHO(1)=    0.500       N(1)  =     2000
   RHO(2)=  100.500       N(2)  =     4000

 VTST: version 3.2, (02/03/18)

 CHAIN: initializing optimizer
 
 OPT: Using VASP QUASI-newton optimizer
 CHAIN: Read ICHAIN            0
 CHAIN: Running the NEB
 NEB:          SPRING     -5.000000
 NEB:          LCLIMB      T
 NEB:     LTANGENTOLD      F
 NEB:           LDNEB      F
 NEB:        LDNEBORG      F
 NEB:        LNEBCELL      F
 NEB:          EFIRST      0.000000
 NEB:           ELAST      0.000000
 
 POSCAR: Ir  O Ir  O                             
  positions in cartesian coordinates
  No initial velocities read in
 
 POSCAR: Ir  O Ir  O                             
  positions in cartesian coordinates
  No initial velocities read in
 


--------------------------------------------------------------------------------------------------------


 ion  position               nearest neighbor table
   1  0.125  0.500  0.188-  21 2.00  29 2.00  17 2.02  25 2.02  26 2.02  18 2.02   2 3.20  52 3.20

   2  0.375  0.500  0.188-  22 2.00  30 2.00  26 2.02  18 2.02  67 2.02  75 2.02   1 3.20  51 3.20

   3  0.125  0.000  0.062-  23 2.00  31 2.00  19 2.02  27 2.02  28 2.02  20 2.02   4 3.20  54 3.20

   4  0.375  0.000  0.062-  24 2.00  32 2.00  28 2.02  20 2.02  69 2.02  77 2.02   3 3.20  53 3.20

   5  0.000  0.500  0.062-  17 2.00  23 2.02  31 2.02  74 2.02  82 2.02   6 3.20  56 3.20
   6  0.250  0.500  0.062-  18 2.00  23 2.02  24 2.02  31 2.02  32 2.02   5 3.20  55 3.20
   7  0.000  0.000  0.188-  27 2.00  35 2.00  29 2.02  21 2.02  72 2.02  80 2.02   8 3.20  58 3.20

   8  0.250  0.000  0.188-  28 2.00  36 2.00  21 2.02  29 2.02  30 2.02  22 2.02   7 3.20  57 3.20

   9  0.125  0.500  0.438-  42 1.99  41 1.99  37 2.00  45 2.00  33 2.03  34 2.03  60 3.20  10 3.20

  10  0.375  0.500  0.438-  42 1.99  91 1.99  46 2.00  38 2.00  83 2.04  34 2.04  59 3.20   9 3.20

  11  0.125  0.000  0.313-  39 1.99  47 1.99  35 2.03  36 2.03  44 2.03  43 2.03  62 3.19  12 3.19

  12  0.374  0.000  0.313-  40 1.99  48 1.99  93 2.01  36 2.02  44 2.02  85 2.03  11 3.19  61 3.21

  13  0.000  0.500  0.313-  33 1.99  25 2.01  90 2.02  98 2.02  39 2.03  47 2.03  14 3.20  64 3.20

  14  0.250  0.500  0.313-  34 1.99  26 2.01  40 2.03  48 2.03  47 2.03  39 2.03  13 3.20  63 3.20

  15  0.999  0.000  0.442-  50 1.80  45 2.03  37 2.03  88 2.04  96 2.04  43 2.09  16 3.22  66 3.23

  16  0.251  0.000  0.442-  49 1.79  46 2.03  38 2.03  37 2.04  45 2.04  44 2.09  15 3.22  65 3.23

  17  0.000  0.500  0.140-   5 2.00   1 2.02  52 2.02
  18  0.250  0.500  0.140-   6 2.00   2 2.02   1 2.02
  19  0.000  0.000  0.015-   3 2.02  54 2.02
  20  0.250  0.000  0.015-   3 2.02   4 2.02
  21  0.125  0.808  0.188-   1 2.00   7 2.02   8 2.02
  22  0.375  0.808  0.188-   2 2.00   8 2.02  57 2.02
  23  0.125  0.308  0.062-   3 2.00   5 2.02   6 2.02
  24  0.375  0.308  0.062-   4 2.00   6 2.02  55 2.02
  25  0.000  0.500  0.235-  13 2.01   1 2.02  52 2.02
  26  0.250  0.500  0.235-  14 2.01   2 2.02   1 2.02
  27  0.000  0.000  0.110-   7 2.00   3 2.02  54 2.02
  28  0.250  0.000  0.110-   8 2.00   4 2.02   3 2.02
  29  0.125  0.192  0.188-   1 2.00   7 2.02   8 2.02
  30  0.375  0.192  0.188-   2 2.00   8 2.02  57 2.02
  31  0.125  0.692  0.062-   3 2.00   5 2.02   6 2.02
  32  0.375  0.692  0.062-   4 2.00   6 2.02  55 2.02
  33  1.000  0.500  0.390-  13 1.99   9 2.03  60 2.04
  34  0.250  0.500  0.390-  14 1.99   9 2.03  10 2.04
  35  0.000  0.000  0.265-   7 2.00  62 2.02  11 2.03
  36  0.250  0.000  0.265-   8 2.00  12 2.02  11 2.03
  37  0.125  0.809  0.436-   9 2.00  15 2.03  16 2.04
  38  0.377  0.809  0.438-  10 2.00  16 2.03  65 2.04
  39  0.125  0.308  0.313-  11 1.99  13 2.03  14 2.03
  40  0.375  0.308  0.312-  12 1.99  14 2.03  63 2.03
  41  0.000  0.500  0.484-  60 1.99   9 1.99
  42  0.250  0.500  0.484-  10 1.99   9 1.99
  43  1.000  0.000  0.361-  62 2.03  11 2.03  15 2.09
  44  0.250  0.000  0.361-  12 2.02  11 2.03  16 2.09
  45  0.125  0.191  0.436-   9 2.00  15 2.03  16 2.04
  46  0.377  0.191  0.438-  10 2.00  16 2.03  65 2.04
  47  0.125  0.692  0.313-  11 1.99  13 2.03  14 2.03
  48  0.375  0.692  0.312-  12 1.99  14 2.03  63 2.03
  49  0.248  0.000  0.511-  16 1.79
  50  0.002  0.000  0.511-  15 1.80
  51  0.625  0.500  0.188-  71 2.00  79 2.00  67 2.02  75 2.02  76 2.02  68 2.02   2 3.20  52 3.20

  52  0.875  0.500  0.188-  72 2.00  80 2.00  68 2.02  17 2.02  76 2.02  25 2.02   1 3.20  51 3.20

  53  0.625  0.000  0.062-  73 2.00  81 2.00  69 2.02  77 2.02  78 2.02  70 2.02   4 3.20  54 3.20

  54  0.875  0.000  0.062-  74 2.00  82 2.00  70 2.02  19 2.02  78 2.02  27 2.02   3 3.20  53 3.20

  55  0.500  0.500  0.062-  67 2.00  32 2.02  24 2.02  73 2.02  81 2.02  56 3.20   6 3.20
  56  0.750  0.500  0.062-  68 2.00  73 2.02  74 2.02  81 2.02  82 2.02  55 3.20   5 3.20
  57  0.500  0.000  0.188-  77 2.00  85 2.00  71 2.02  22 2.02  79 2.02  30 2.02   8 3.20  58 3.20

  58  0.750  0.000  0.188-  78 2.00  86 2.00  71 2.02  79 2.02  80 2.02  72 2.02   7 3.20  57 3.20

  59  0.625  0.500  0.437-  91 1.98  87 1.98  95 1.98  92 1.99  83 2.03  84 2.03  10 3.20  60 3.20

  60  0.875  0.500  0.438-  41 1.99  92 1.99  88 2.00  96 2.00  84 2.04  33 2.04  59 3.20   9 3.20

  61  0.625  0.000  0.313-  89 1.99  97 1.99  85 2.03  86 2.03  94 2.04  93 2.04  12 3.21  62 3.21

  62  0.876  0.000  0.313-  90 1.99  98 1.99  94 2.01  35 2.02  43 2.03  86 2.03  11 3.19  61 3.21

  63  0.500  0.500  0.313-  83 1.98  75 2.00  40 2.03  48 2.03  89 2.03  97 2.03  14 3.20  64 3.21

  64  0.750  0.500  0.313-  84 1.98  76 2.00  90 2.03  98 2.03  97 2.03  89 2.03  13 3.20  63 3.21

  65  0.503  0.000  0.440- 100 1.88  95 2.01  87 2.01  46 2.04  38 2.04  93 2.05  66 3.13  16 3.23

  66  0.747  0.000  0.440-  99 1.88  95 2.01  87 2.01  96 2.04  88 2.04  94 2.05  65 3.13  15 3.23

  67  0.500  0.500  0.140-  55 2.00  51 2.02   2 2.02
  68  0.750  0.500  0.140-  56 2.00  52 2.02  51 2.02
  69  0.500  0.000  0.015-   4 2.02  53 2.02
  70  0.750  0.000  0.015-  53 2.02  54 2.02
  71  0.625  0.808  0.188-  51 2.00  57 2.02  58 2.02
  72  0.875  0.808  0.188-  52 2.00   7 2.02  58 2.02
  73  0.625  0.308  0.062-  53 2.00  55 2.02  56 2.02
  74  0.875  0.308  0.062-  54 2.00   5 2.02  56 2.02
  75  0.500  0.500  0.235-  63 2.00  51 2.02   2 2.02
  76  0.750  0.500  0.235-  64 2.00  52 2.02  51 2.02
  77  0.500  0.000  0.110-  57 2.00  53 2.02   4 2.02
  78  0.750  0.000  0.110-  58 2.00  54 2.02  53 2.02
  79  0.625  0.192  0.188-  51 2.00  57 2.02  58 2.02
  80  0.875  0.192  0.188-  52 2.00   7 2.02  58 2.02
  81  0.625  0.692  0.062-  53 2.00  55 2.02  56 2.02
  82  0.875  0.692  0.062-  54 2.00   5 2.02  56 2.02
  83  0.499  0.500  0.389-  63 1.98  59 2.03  10 2.04
  84  0.751  0.500  0.389-  64 1.98  59 2.03  60 2.04
  85  0.500  0.000  0.265-  57 2.00  61 2.03  12 2.03
  86  0.750  0.000  0.265-  58 2.00  61 2.03  62 2.03
  87  0.625  0.806  0.432-  59 1.98  66 2.01  65 2.01
  88  0.873  0.809  0.438-  60 2.00  15 2.04  66 2.04
  89  0.625  0.308  0.312-  61 1.99  63 2.03  64 2.03
  90  0.875  0.308  0.312-  62 1.99  13 2.02  64 2.03
  91  0.502  0.500  0.483-  59 1.98  10 1.99
  92  0.749  0.500  0.483-  59 1.99  60 1.99
  93  0.498  0.000  0.361-  12 2.01  61 2.04  65 2.05
  94  0.752  0.000  0.360-  62 2.01  61 2.04  66 2.05
  95  0.625  0.194  0.432-  59 1.98  66 2.01  65 2.01
  96  0.873  0.191  0.438-  60 2.00  15 2.04  66 2.04
  97  0.625  0.692  0.312-  61 1.99  63 2.03  64 2.03
  98  0.875  0.692  0.312-  62 1.99  13 2.02  64 2.03
  99  0.715  0.000  0.511-  66 1.88
 100  0.536  0.000  0.510-  65 1.88
 
  LATTYP: Found a simple orthorhombic cell.
 ALAT       =     6.4702430000
 B/A-ratio  =     1.9796060210
 C/A-ratio  =     4.0000000000
  
  Lattice vectors:
  
 A1 = (   0.0000000000,  -6.4702430000,   0.0000000000)
 A2 = ( -12.8085320000,   0.0000000000,   0.0000000000)
 A3 = (   0.0000000000,   0.0000000000, -25.8809720000)


Analysis of symmetry for initial positions (statically):
=====================================================================
 Subroutine PRICEL returns:
 Original cell was already a primitive cell.
 

 Routine SETGRP: Setting up the symmetry group for a 
 simple orthorhombic supercell.


 Subroutine GETGRP returns: Found  2 space group operations
 (whereof  2 operations were pure point group operations)
 out of a pool of  8 trial point group operations.


The static configuration has the point symmetry C_1h.


Analysis of symmetry for dynamics (positions and initial velocities):
=====================================================================
 Subroutine PRICEL returns:
 Original cell was already a primitive cell.
 

 Routine SETGRP: Setting up the symmetry group for a 
 simple orthorhombic supercell.


 Subroutine GETGRP returns: Found  2 space group operations
 (whereof  2 operations were pure point group operations)
 out of a pool of  8 trial point group operations.


The dynamic configuration has the point symmetry C_1h.


Analysis of constrained symmetry for selective dynamics:
=====================================================================
 Subroutine PRICEL returns:
 Original cell was already a primitive cell.
 

 Routine SETGRP: Setting up the symmetry group for a 
 simple orthorhombic supercell.


 Subroutine GETGRP returns: Found  2 space group operations
 (whereof  2 operations were pure point group operations)
 out of a pool of  8 trial point group operations.


The constrained configuration has the point symmetry C_1h.


Analysis of structural, dynamic, and magnetic symmetry:
=====================================================================
 Subroutine PRICEL returns:
 Original cell was already a primitive cell.
 

 Routine SETGRP: Setting up the symmetry group for a 
 simple orthorhombic supercell.


 Subroutine GETGRP returns: Found  2 space group operations
 (whereof  2 operations were pure point group operations)
 out of a pool of  8 trial point group operations.


The magnetic configuration has the point symmetry C_1h.


 Subroutine INISYM returns: Found  2 space group operations
 (whereof  2 operations are pure point group operations),
 and found     1 'primitive' translations

 
 
 KPOINTS: Automatic mesh                          

Automatic generation of k-mesh.
Space group operators:
 irot       det(A)        alpha          n_x          n_y          n_z        tau_x        tau_y        tau_z
    1     1.000000     0.000001     1.000000     0.000000     0.000000     0.000000     0.000000     0.000000
    2    -1.000000   180.000000     0.000000     1.000000     0.000000     0.000000     0.000000     0.000000
 
 Subroutine IBZKPT returns following result:
 ===========================================
 
 Found      4 irreducible k-points:
 
 Following reciprocal coordinates:
            Coordinates               Weight
  0.000000  0.000000  0.000000      1.000000
  0.333333  0.000000  0.000000      2.000000
  0.000000  0.333333  0.000000      2.000000
  0.333333  0.333333  0.000000      4.000000
 
 Following cartesian coordinates:
            Coordinates               Weight
  0.000000  0.000000  0.000000      1.000000
  0.026024  0.000000  0.000000      2.000000
  0.000000  0.051518  0.000000      2.000000
  0.026024  0.051518  0.000000      4.000000
 


--------------------------------------------------------------------------------------------------------




 Dimension of arrays:
   k-points           NKPTS =      4   k-points in BZ     NKDIM =      4   number of bands    NBANDS=    448
   number of dos      NEDOS =    301   number of ions     NIONS =    100
   non local maximal  LDIM  =      6   non local SUM 2l+1 LMDIM =     18
   total plane-waves  NPLWV = 362880
   max r-space proj   IRMAX =   2532   max aug-charges    IRDMAX=  12432
   dimension x,y,z NGX =    70 NGY =   36 NGZ =  144
   dimension x,y,z NGXF=   140 NGYF=   72 NGZF=  288
   support grid    NGXF=   140 NGYF=   72 NGZF=  288
   ions per type =              16  34  16  34
   NGX,Y,Z   is equivalent  to a cutoff of   9.09,  9.25,  9.25 a.u.
   NGXF,Y,Z  is equivalent  to a cutoff of  18.17, 18.50, 18.50 a.u.

 SYSTEM =  unknown system                          
 POSCAR =  Ir  O Ir  O                             

 Startparameter for this run:
   NWRITE =      2    write-flag & timer
   PREC   = normal    normal or accurate (medium, high low for compatibility)
   ISTART =      0    job   : 0-new  1-cont  2-samecut
   ICHARG =      2    charge: 1-file 2-atom 10-const
   ISPIN  =      2    spin polarized calculation?
   LNONCOLLINEAR =      F non collinear calculations
   LSORBIT =      F    spin-orbit coupling
   INIWAV =      1    electr: 0-lowe 1-rand  2-diag
   LASPH  =      F    aspherical Exc in radial PAW
   METAGGA=      F    non-selfconsistent MetaGGA calc.

 Electronic Relaxation 1
   ENCUT  =  500.0 eV  36.75 Ry    6.06 a.u.  23.35 11.80 47.19*2*pi/ulx,y,z
   ENINI  =  500.0     initial cutoff
   ENAUG  =  605.4 eV  augmentation charge cutoff
   NELM   =     60;   NELMIN=  4; NELMDL= -5     # of ELM steps 
   EDIFF  = 0.1E-04   stopping-criterion for ELM
   LREAL  =      T    real-space projection
   NLSPLINE    = F    spline interpolate recip. space projectors
   LCOMPAT=      F    compatible to vasp.4.4
   GGA_COMPAT  = T    GGA compatible to vasp.4.4-vasp.4.6
   LMAXPAW     = -100 max onsite density
   LMAXMIX     =    2 max onsite mixed and CHGCAR
   VOSKOWN=      0    Vosko Wilk Nusair interpolation
   ROPT   =   -0.00050  -0.00050  -0.00050  -0.00050
 Ionic relaxation
   EDIFFG = -.5E-01   stopping-criterion for IOM
   NSW    =    500    number of steps for IOM
   NBLOCK =      1;   KBLOCK =    500    inner block; outer block 
   IBRION =      1    ionic relax: 0-MD 1-quasi-New 2-CG
   NFREE  =      0    steps in history (QN), initial steepest desc. (CG)
   ISIF   =      2    stress and relaxation
   IWAVPR =     11    prediction:  0-non 1-charg 2-wave 3-comb
   ISYM   =      2    0-nonsym 1-usesym 2-fastsym
   LCORR  =      T    Harris-Foulkes like correction to forces

   POTIM  = 0.5000    time-step for ionic-motion
   TEIN   =    0.0    initial temperature
   TEBEG  =    0.0;   TEEND  =   0.0 temperature during run
   SMASS  =  -3.00    Nose mass-parameter (am)
   estimated Nose-frequenzy (Omega)   =  0.10E-29 period in steps =****** mass=  -0.375E-26a.u.
   SCALEE = 1.0000    scale energy and forces
   NPACO  =    256;   APACO  = 16.0  distance and # of slots for P.C.
   PSTRESS=    0.0 pullay stress

  Mass of Ions in am
   POMASS = 192.22 16.00192.22 16.00
  Ionic Valenz
   ZVAL   =   9.00  6.00  9.00  6.00
  Atomic Wigner-Seitz radii
   RWIGS  =  -1.00 -1.00 -1.00 -1.00
  virtual crystal weights 
   VCA    =   1.00  1.00  1.00  1.00
   NELECT =     696.0000    total number of electrons
   NUPDOWN=      -1.0000    fix difference up-down

 DOS related values:
   EMIN   =  10.00;   EMAX   =-10.00  energy-range for DOS
   EFERMI =   0.00
   ISMEAR =     0;   SIGMA  =   0.05  broadening in eV -4-tet -1-fermi 0-gaus

 Electronic relaxation 2 (details)
   IALGO  =     68    algorithm
   LDIAG  =      T    sub-space diagonalisation (order eigenvalues)
   LSUBROT=      F    optimize rotation matrix (better conditioning)
   TURBO    =      0    0=normal 1=particle mesh
   IRESTART =      0    0=no restart 2=restart with 2 vectors
   NREBOOT  =      0    no. of reboots
   NMIN     =      0    reboot dimension
   EREF     =   0.00    reference energy to select bands
   IMIX   =      4    mixing-type and parameters
     AMIX     =   0.40;   BMIX     =  1.00
     AMIX_MAG =   1.60;   BMIX_MAG =  1.00
     AMIN     =   0.10
     WC   =   100.;   INIMIX=   1;  MIXPRE=   1;  MAXMIX= -45

 Intra band minimization:
   WEIMIN = 0.0010     energy-eigenvalue tresh-hold
   EBREAK =  0.56E-08  absolut break condition
   DEPER  =   0.30     relativ break condition  

   TIME   =   0.40     timestep for ELM

  volume/ion in A,a.u.               =      21.45       144.74
  Fermi-wavevector in a.u.,A,eV,Ry     =   1.124979  2.125902 17.219229  1.265578
  Thomas-Fermi vector in A             =   2.261654
 
 Write flags
   LWAVE        =      F    write WAVECAR
   LDOWNSAMPLE  =      F    k-point downsampling of WAVECAR
   LCHARG       =      F    write CHGCAR
   LVTOT        =      F    write LOCPOT, total local potential
   LVHAR        =      F    write LOCPOT, Hartree potential only
   LELF         =      F    write electronic localiz. function (ELF)
   LORBIT       =      0    0 simple, 1 ext, 2 COOP (PROOUT), +10 PAW based schemes


 Dipole corrections
   LMONO  =      F    monopole corrections only (constant potential shift)
   LDIPOL =      F    correct potential (dipole corrections)
   IDIPOL =      0    1-x, 2-y, 3-z, 4-all directions 
   EPSILON=  1.0000000 bulk dielectric constant

 Exchange correlation treatment:
   GGA     =    RP    GGA type
   LEXCH   =     9    internal setting for exchange type
   VOSKOWN=      0    Vosko Wilk Nusair interpolation
   LHFCALC =     F    Hartree Fock is set to
   LHFONE  =     F    Hartree Fock one center treatment
   AEXX    =    0.0000 exact exchange contribution

 Linear response parameters
   LEPSILON=     F    determine dielectric tensor
   LRPA    =     F    only Hartree local field effects (RPA)
   LNABLA  =     F    use nabla operator in PAW spheres
   LVEL    =     F    velocity operator in full k-point grid
   LINTERFAST=   F  fast interpolation
   KINTER  =     0    interpolate to denser k-point grid
   CSHIFT  =0.1000    complex shift for real part using Kramers Kronig
   OMEGAMAX=  -1.0    maximum frequency
   DEG_THRESHOLD= 0.2000000E-02 threshold for treating states as degnerate
   RTIME   =   -0.100 relaxation time in fs
  (WPLASMAI=    0.000 imaginary part of plasma frequency in eV, 0.658/RTIME)
   DFIELD  = 0.0000000 0.0000000 0.0000000 field for delta impulse in time
 
 Orbital magnetization related:
   ORBITALMAG=     F  switch on orbital magnetization
   LCHIMAG   =     F  perturbation theory with respect to B field
   DQ        =  0.001000  dq finite difference perturbation B field
   LLRAUG    =     F  two centre corrections for induced B field



--------------------------------------------------------------------------------------------------------


 quasi-Newton-method for relaxation of ions
   using selective dynamics as specified on POSCAR
   WARNING: If single coordinates had been selected the selection of coordinates
            is made according to the corresponding   d i r e c t   coordinates!
            Don't support selection of single cartesian coordinates -- sorry ...
  !
 charge density and potential will be updated during run
 spin polarized calculation
 RMM-DIIS sequential band-by-band and
  variant of blocked Davidson during initial phase
 perform sub-space diagonalisation
    before iterative eigenvector-optimisation
 modified Broyden-mixing scheme, WC =      100.0
 initial mixing is a Kerker type mixing with AMIX =  0.4000 and BMIX =      1.0000
 Hartree-type preconditioning will be used
 using additional bands          100
 real space projection scheme for non local part
 use partial core corrections
 calculate Harris-corrections to forces 
   (improved forces if not selfconsistent)
 use gradient corrections 
 use of overlap-Matrix (Vanderbilt PP)
 Gauss-broadening in eV      SIGMA  =   0.05


--------------------------------------------------------------------------------------------------------


  energy-cutoff  :      500.00
  volume of cell :     2144.87
      direct lattice vectors                 reciprocal lattice vectors
    12.808532000  0.000000000  0.000000000     0.078072959  0.000000000  0.000000000
     0.000000000  6.470243000  0.000000000     0.000000000  0.154553701  0.000000000
     0.000000000  0.000000000 25.880972000     0.000000000  0.000000000  0.038638425

  length of vectors
    12.808532000  6.470243000 25.880972000     0.078072959  0.154553701  0.038638425


 
 k-points in units of 2pi/SCALE and weight: Automatic mesh                          
   0.00000000  0.00000000  0.00000000       0.111
   0.02602432  0.00000000  0.00000000       0.222
   0.00000000  0.05151790  0.00000000       0.222
   0.02602432  0.05151790  0.00000000       0.444
 
 k-points in reciprocal lattice and weights: Automatic mesh                          
   0.00000000  0.00000000  0.00000000       0.111
   0.33333333  0.00000000  0.00000000       0.222
   0.00000000  0.33333333  0.00000000       0.222
   0.33333333  0.33333333  0.00000000       0.444
 
 position of ions in fractional coordinates (direct lattice) 
   0.12500000  0.50000000  0.18750000
   0.37500000  0.50000000  0.18750000
   0.12500000  0.00000000  0.06250000
   0.37500000  0.00000000  0.06250000
   0.00000000  0.50000000  0.06250000
   0.25000000  0.50000000  0.06250000
   0.00000000  0.00000000  0.18750000
   0.25000000  0.00000000  0.18750000
   0.12500079  0.50000000  0.43809317
   0.37513610  0.50000000  0.43843972
   0.12495611  0.00000000  0.31305819
   0.37429954  0.00000000  0.31265213
   0.00014281  0.50000000  0.31298372
   0.24988511  0.50000000  0.31297629
   0.99927105  0.00000000  0.44177732
   0.25081262  0.00000000  0.44198675
   0.00000000  0.50000000  0.13961000
   0.25000000  0.50000000  0.13961000
   0.00000000  0.00000000  0.01461000
   0.25000000  0.00000000  0.01461000
   0.12500000  0.80844000  0.18750000
   0.37500000  0.80844000  0.18750000
   0.12500000  0.30844000  0.06250000
   0.37500000  0.30844000  0.06250000
   0.00000000  0.50000000  0.23539000
   0.25000000  0.50000000  0.23539000
   0.00000000  0.00000000  0.11039000
   0.25000000  0.00000000  0.11039000
   0.12500000  0.19156000  0.18750000
   0.37500000  0.19156000  0.18750000
   0.12500000  0.69156000  0.06250000
   0.37500000  0.69156000  0.06250000
   0.99989766  0.50000000  0.38971856
   0.25021358  0.50000000  0.38974072
   0.00043307  0.00000000  0.26479911
   0.24950081  0.00000000  0.26476473
   0.12499671  0.80911003  0.43623433
   0.37664139  0.80867534  0.43843107
   0.12485646  0.30759822  0.31280832
   0.37479900  0.30765518  0.31240724
   0.00000577  0.50000000  0.48375568
   0.24982716  0.50000000  0.48377471
   0.99963783  0.00000000  0.36119457
   0.25029367  0.00000000  0.36114422
   0.12499671  0.19088997  0.43623433
   0.37664139  0.19132466  0.43843107
   0.12485646  0.69240178  0.31280832
   0.37479900  0.69234482  0.31240724
   0.24846955  0.00000000  0.51132922
   0.00166826  0.00000000  0.51113893
   0.62500000  0.50000000  0.18750000
   0.87500000  0.50000000  0.18750000
   0.62500000  0.00000000  0.06250000
   0.87500000  0.00000000  0.06250000
   0.50000000  0.50000000  0.06250000
   0.75000000  0.50000000  0.06250000
   0.50000000  0.00000000  0.18750000
   0.75000000  0.00000000  0.18750000
   0.62500701  0.50000000  0.43695036
   0.87489551  0.50000000  0.43844573
   0.62492434  0.00000000  0.31289723
   0.87565629  0.00000000  0.31260701
   0.49975205  0.50000000  0.31273232
   0.75024851  0.50000000  0.31269917
   0.50280393  0.00000000  0.43964168
   0.74697121  0.00000000  0.43973800
   0.50000000  0.50000000  0.13961000
   0.75000000  0.50000000  0.13961000
   0.50000000  0.00000000  0.01461000
   0.75000000  0.00000000  0.01461000
   0.62500000  0.80844000  0.18750000
   0.87500000  0.80844000  0.18750000
   0.62500000  0.30844000  0.06250000
   0.87500000  0.30844000  0.06250000
   0.50000000  0.50000000  0.23539000
   0.75000000  0.50000000  0.23539000
   0.50000000  0.00000000  0.11039000
   0.75000000  0.00000000  0.11039000
   0.62500000  0.19156000  0.18750000
   0.87500000  0.19156000  0.18750000
   0.62500000  0.69156000  0.06250000
   0.87500000  0.69156000  0.06250000
   0.49907911  0.50000000  0.38918712
   0.75097851  0.50000000  0.38918231
   0.50000894  0.00000000  0.26493695
   0.74985592  0.00000000  0.26477790
   0.62498793  0.80606345  0.43235392
   0.87324024  0.80865368  0.43804324
   0.62481701  0.30788089  0.31243924
   0.87548529  0.30769506  0.31231943
   0.50153451  0.50000000  0.48322137
   0.74862441  0.50000000  0.48326302
   0.49784152  0.00000000  0.36055932
   0.75196268  0.00000000  0.36041402
   0.62498793  0.19393655  0.43235392
   0.87324024  0.19134632  0.43804324
   0.62481701  0.69211911  0.31243924
   0.87548529  0.69230494  0.31231943
   0.71484649  0.00000000  0.51053791
   0.53589192  0.00000000  0.51049406
 
 position of ions in cartesian coordinates  (Angst):
   1.60106650  3.23512150  4.85268225
   4.80319950  3.23512150  4.85268225
   1.60106650  0.00000000  1.61756075
   4.80319950  0.00000000  1.61756075
   0.00000000  3.23512150  1.61756075
   3.20213300  3.23512150  1.61756075
   0.00000000  0.00000000  4.85268225
   3.20213300  0.00000000  4.85268225
   1.60107662  3.23512150 11.33827704
   4.80494270  3.23512150 11.34724603
   1.60050433  0.00000000  8.10225019
   4.79422762  0.00000000  8.09174111
   0.00182913  3.23512150  8.10032296
   3.20066137  3.23512150  8.10013049
  12.79919519  0.00000000 11.43362657
   3.21254143  0.00000000 11.43904663
   0.00000000  3.23512150  3.61324250
   3.20213300  3.23512150  3.61324250
   0.00000000  0.00000000  0.37812100
   3.20213300  0.00000000  0.37812100
   1.60106650  5.23080325  4.85268225
   4.80319950  5.23080325  4.85268225
   1.60106650  1.99568175  1.61756075
   4.80319950  1.99568175  1.61756075
   0.00000000  3.23512150  6.09212200
   3.20213300  3.23512150  6.09212200
   0.00000000  0.00000000  2.85700050
   3.20213300  0.00000000  2.85700050
   1.60106650  1.23943975  4.85268225
   4.80319950  1.23943975  4.85268225
   1.60106650  4.47456125  1.61756075
   4.80319950  4.47456125  1.61756075
  12.80722115  3.23512150 10.08629505
   3.20486861  3.23512150 10.08686872
   0.00554703  0.00000000  6.85325831
   3.19573905  0.00000000  6.85236861
   1.60102435  5.23513851 11.29016841
   4.82422332  5.23232596 11.34702230
   1.59922802  1.99023526  8.09578341
   4.80062493  1.99060376  8.08540290
   0.00007396  3.23512150 12.52006714
   3.19991919  3.23512150 12.52055963
  12.80389310  0.00000000  9.34806667
   3.20589447  0.00000000  9.34676347
   1.60102435  1.23510449 11.29016841
   4.82422332  1.23791704 11.34702230
   1.59922802  4.48000774  8.09578341
   4.80062493  4.47963924  8.08540290
   3.18253021  0.00000000 13.23369712
   0.02136794  0.00000000 13.22877233
   8.00533250  3.23512150  4.85268225
  11.20746550  3.23512150  4.85268225
   8.00533250  0.00000000  1.61756075
  11.20746550  0.00000000  1.61756075
   6.40426600  3.23512150  1.61756075
   9.60639900  3.23512150  1.61756075
   6.40426600  0.00000000  4.85268225
   9.60639900  0.00000000  4.85268225
   8.00542229  3.23512150 11.30870006
  11.20612712  3.23512150 11.34740172
   8.00436343  0.00000000  8.09808446
  11.21587166  0.00000000  8.09057321
   6.40109007  3.23512150  8.09381646
   9.60958201  3.23512150  8.09295845
   6.44018025  0.00000000 11.37835391
   9.56760469  0.00000000 11.38084694
   6.40426600  3.23512150  3.61324250
   9.60639900  3.23512150  3.61324250
   6.40426600  0.00000000  0.37812100
   9.60639900  0.00000000  0.37812100
   8.00533250  5.23080325  4.85268225
  11.20746550  5.23080325  4.85268225
   8.00533250  1.99568175  1.61756075
  11.20746550  1.99568175  1.61756075
   6.40426600  3.23512150  6.09212200
   9.60639900  3.23512150  6.09212200
   6.40426600  0.00000000  2.85700050
   9.60639900  0.00000000  2.85700050
   8.00533250  1.23943975  4.85268225
  11.20746550  1.23943975  4.85268225
   8.00533250  4.47456125  1.61756075
  11.20746550  4.47456125  1.61756075
   6.39247081  3.23512150 10.07254092
   9.61893227  3.23512150 10.07241656
   6.40438047  0.00000000  6.85682587
   9.60455350  0.00000000  6.85270945
   8.00517795  5.21542639 11.18973974
  11.18492557  5.23218582 11.33698472
   8.00298870  1.99206416  8.08623116
  11.21368140  1.99086179  8.08313053
   6.42392083  3.23512150 12.50623879
   9.58877965  3.23512150 12.50731660
   6.37661901  0.00000000  9.33162561
   9.63153800  0.00000000  9.32786528
   8.00517795  1.25481661 11.18973974
  11.18492557  1.23805718 11.33698472
   8.00298870  4.47817884  8.08623116
  11.21368140  4.47938121  8.08313053
   9.15613420  0.00000000 13.21321744
   6.86398881  0.00000000 13.21208241
 


--------------------------------------------------------------------------------------------------------


 k-point  1 :   0.0000 0.0000 0.0000  plane waves:   54455
 k-point  2 :   0.3333 0.0000 0.0000  plane waves:   54459
 k-point  3 :   0.0000 0.3333 0.0000  plane waves:   54468
 k-point  4 :   0.3333 0.3333 0.0000  plane waves:   54434

 maximum and minimum number of plane-waves per node :     27251    27204

 maximum number of plane-waves:     54468
 maximum index in each direction: 
   IXMAX=   23   IYMAX=   11   IZMAX=   47
   IXMIN=  -23   IYMIN=  -12   IZMIN=  -47


 real space projection operators:
  total allocation   :      13829.31 KBytes
  max/ min on nodes  :       6919.45       6909.86


 parallel 3D FFT for wavefunctions:
    minimum data exchange during FFTs selected (reduces bandwidth)
 parallel 3D FFT for charge:
    minimum data exchange during FFTs selected (reduces bandwidth)


 total amount of memory used by VASP MPI-rank0   511740. kBytes
=======================================================================

   base      :      30000. kBytes
   nonlr-proj:      12770. kBytes
   fftplans  :      18109. kBytes
   grid      :      50594. kBytes
   one-center:       1555. kBytes
   wavefun   :     398712. kBytes
 
     INWAV:  cpu time    0.0000: real time    0.0000
 Broyden mixing: mesh for mixing (old mesh)
   NGX = 47   NGY = 23   NGZ = 95
  (NGX  =140   NGY  = 72   NGZ  =288)
  gives a total of 102695 points

 initial charge density was supplied:
 charge density of overlapping atoms calculated
 number of electron     696.0000000 magnetization      60.0000000
 keeping initial charge density in first step


--------------------------------------------------------------------------------------------------------


 Maximum index for non-local projection operator         1221
 Maximum index for augmentation-charges         1840 (set IRDMAX)


--------------------------------------------------------------------------------------------------------


 First call to EWALD:  gamma=   0.137
 Maximum number of real-space cells 3x 5x 2
 Maximum number of reciprocal cells 3x 2x 5

    FEWALD:  cpu time    0.0105: real time    0.0107


--------------------------------------- Iteration      1(   1)  ---------------------------------------


    POTLOK:  cpu time    0.5683: real time    0.5712
    SETDIJ:  cpu time    0.0583: real time    0.0584
     EDDAV:  cpu time   84.0442: real time   84.2496
       DOS:  cpu time    0.0035: real time    0.0046
    --------------------------------------------
      LOOP:  cpu time   84.6743: real time   84.8837

 eigenvalue-minimisations  :  7224
 total energy-change (2. order) : 0.7758746E+04  (-0.3133595E+05)
 number of electron     696.0000000 magnetization      60.0000000
 augmentation part      696.0000000 magnetization      60.0000000

 Free energy of the ion-electron system (eV)
  ---------------------------------------------------
  alpha Z        PSCENC =      1826.57435200
  Ewald energy   TEWEN  =    230022.11912835
  -Hartree energ DENC   =   -276932.79233544
  -exchange      EXHF   =         0.00000000
  -V(xc)+E(xc)   XCENC  =      1311.33941355
  PAW double counting   =     41249.06120504   -40032.83491672
  entropy T*S    EENTRO =        -0.05703369
  eigenvalues    EBANDS =      3017.27959228
  atomic energy  EATOM  =     47298.05697971
  Solvation  Ediel_sol  =         0.00000000
  ---------------------------------------------------
  free energy    TOTEN  =      7758.74638507 eV

  energy without entropy =     7758.80341876  energy(sigma->0) =     7758.77490192


--------------------------------------------------------------------------------------------------------




--------------------------------------- Iteration      1(   2)  ---------------------------------------


     EDDAV:  cpu time   89.8628: real time   90.0894
       DOS:  cpu time    0.0024: real time    0.0024
    --------------------------------------------
      LOOP:  cpu time   89.8651: real time   90.0918

 eigenvalue-minimisations  :  7544
 total energy-change (2. order) :-0.7225086E+04  (-0.6637448E+04)
 number of electron     696.0000000 magnetization      60.0000000
 augmentation part      696.0000000 magnetization      60.0000000

 Free energy of the ion-electron system (eV)
  ---------------------------------------------------
  alpha Z        PSCENC =      1826.57435200
  Ewald energy   TEWEN  =    230022.11912835
  -Hartree energ DENC   =   -276932.79233544
  -exchange      EXHF   =         0.00000000
  -V(xc)+E(xc)   XCENC  =      1311.33941355
  PAW double counting   =     41249.06120504   -40032.83491672
  entropy T*S    EENTRO =        -0.04822313
  eigenvalues    EBANDS =     -4207.81509263
  atomic energy  EATOM  =     47298.05697971
  Solvation  Ediel_sol  =         0.00000000
  ---------------------------------------------------
  free energy    TOTEN  =       533.66051072 eV

  energy without entropy =      533.70873385  energy(sigma->0) =      533.68462229


--------------------------------------------------------------------------------------------------------




--------------------------------------- Iteration      1(   3)  ---------------------------------------


     EDDAV:  cpu time  104.7136: real time  104.9620
       DOS:  cpu time    0.0024: real time    0.0024
    --------------------------------------------
      LOOP:  cpu time  104.7160: real time  104.9644

 eigenvalue-minimisations  :  9024
 total energy-change (2. order) :-0.1236904E+04  (-0.1177874E+04)
 number of electron     696.0000000 magnetization      60.0000000
 augmentation part      696.0000000 magnetization      60.0000000

 Free energy of the ion-electron system (eV)
  ---------------------------------------------------
  alpha Z        PSCENC =      1826.57435200
  Ewald energy   TEWEN  =    230022.11912835
  -Hartree energ DENC   =   -276932.79233544
  -exchange      EXHF   =         0.00000000
  -V(xc)+E(xc)   XCENC  =      1311.33941355
  PAW double counting   =     41249.06120504   -40032.83491672
  entropy T*S    EENTRO =        -0.06524726
  eigenvalues    EBANDS =     -5444.70183777
  atomic energy  EATOM  =     47298.05697971
  Solvation  Ediel_sol  =         0.00000000
  ---------------------------------------------------
  free energy    TOTEN  =      -703.24325855 eV

  energy without entropy =     -703.17801129  energy(sigma->0) =     -703.21063492


--------------------------------------------------------------------------------------------------------




--------------------------------------- Iteration      1(   4)  ---------------------------------------


     EDDAV:  cpu time  106.3588: real time  106.6156
       DOS:  cpu time    0.0026: real time    0.0026
    --------------------------------------------
      LOOP:  cpu time  106.3614: real time  106.6182

 eigenvalue-minimisations  :  9184
 total energy-change (2. order) :-0.7336524E+02  (-0.7099029E+02)
 number of electron     696.0000000 magnetization      60.0000000
 augmentation part      696.0000000 magnetization      60.0000000

 Free energy of the ion-electron system (eV)
  ---------------------------------------------------
  alpha Z        PSCENC =      1826.57435200
  Ewald energy   TEWEN  =    230022.11912835
  -Hartree energ DENC   =   -276932.79233544
  -exchange      EXHF   =         0.00000000
  -V(xc)+E(xc)   XCENC  =      1311.33941355
  PAW double counting   =     41249.06120504   -40032.83491672
  entropy T*S    EENTRO =        -0.06685745
  eigenvalues    EBANDS =     -5518.06546675
  atomic energy  EATOM  =     47298.05697971
  Solvation  Ediel_sol  =         0.00000000
  ---------------------------------------------------
  free energy    TOTEN  =      -776.60849772 eV

  energy without entropy =     -776.54164027  energy(sigma->0) =     -776.57506900


--------------------------------------------------------------------------------------------------------




--------------------------------------- Iteration      1(   5)  ---------------------------------------


     EDDAV:  cpu time  106.0527: real time  106.3034
       DOS:  cpu time    0.0026: real time    0.0026
    CHARGE:  cpu time    4.3453: real time    4.3556
    MIXING:  cpu time    0.0115: real time    0.0115
    --------------------------------------------
      LOOP:  cpu time  110.4122: real time  110.6731

 eigenvalue-minimisations  :  9168
 total energy-change (2. order) :-0.2271111E+01  (-0.2238162E+01)
 number of electron     696.0000552 magnetization      56.0505883
 augmentation part      119.1728744 magnetization      47.0396868

 Broyden mixing:
  rms(total) = 0.17703E+02    rms(broyden)= 0.17702E+02
  rms(prec ) = 0.17953E+02
  weight for this iteration     100.00

 Free energy of the ion-electron system (eV)
  ---------------------------------------------------
  alpha Z        PSCENC =      1826.57435200
  Ewald energy   TEWEN  =    230022.11912835
  -Hartree energ DENC   =   -276932.79233544
  -exchange      EXHF   =         0.00000000
  -V(xc)+E(xc)   XCENC  =      1311.33941355
  PAW double counting   =     41249.06120504   -40032.83491672
  entropy T*S    EENTRO =        -0.06731805
  eigenvalues    EBANDS =     -5520.33611752
  atomic energy  EATOM  =     47298.05697971
  Solvation  Ediel_sol  =         0.00000000
  ---------------------------------------------------
  free energy    TOTEN  =      -778.87960909 eV

  energy without entropy =     -778.81229104  energy(sigma->0) =     -778.84595007


--------------------------------------------------------------------------------------------------------




--------------------------------------- Iteration      1(   6)  ---------------------------------------


    POTLOK:  cpu time    0.5036: real time    0.5048
    SETDIJ:  cpu time    0.0615: real time    0.0617
    EDDIAG:  cpu time   14.7192: real time   14.7540
  RMM-DIIS:  cpu time   46.9855: real time   47.0962
    ORTHCH:  cpu time    2.7166: real time    2.7230
       DOS:  cpu time    0.0024: real time    0.0024
    CHARGE:  cpu time    4.2055: real time    4.2155
    MIXING:  cpu time    0.0114: real time    0.0114
    --------------------------------------------
      LOOP:  cpu time   69.2057: real time   69.3688

 eigenvalue-minimisations  :  7203
 total energy-change (2. order) : 0.9592370E+02  (-0.7580340E+02)
 number of electron     696.0000510 magnetization      53.2264448
 augmentation part      131.9655426 magnetization      44.9891177

 Broyden mixing:
  rms(total) = 0.13381E+02    rms(broyden)= 0.13378E+02
  rms(prec ) = 0.14635E+02
  weight for this iteration     100.00

 eigenvalues of (default mixing * dielectric matrix)
  average eigenvalue GAMMA=   0.8012
  0.8012

 Free energy of the ion-electron system (eV)
  ---------------------------------------------------
  alpha Z        PSCENC =      1826.57435200
  Ewald energy   TEWEN  =    230022.11912835
  -Hartree energ DENC   =   -277030.90265825
  -exchange      EXHF   =         0.00000000
  -V(xc)+E(xc)   XCENC  =      1395.35262281
  PAW double counting   =     49269.71388825   -48120.02722134
  entropy T*S    EENTRO =        -0.07623180
  eigenvalues    EBANDS =     -5343.76676701
  atomic energy  EATOM  =     47298.05697971
  Solvation  Ediel_sol  =         0.00000000
  ---------------------------------------------------
  free energy    TOTEN  =      -682.95590729 eV

  energy without entropy =     -682.87967549  energy(sigma->0) =     -682.91779139


--------------------------------------------------------------------------------------------------------




--------------------------------------- Iteration      1(   7)  ---------------------------------------


    POTLOK:  cpu time    0.5433: real time    0.5446
    SETDIJ:  cpu time    0.0616: real time    0.0618
    EDDIAG:  cpu time   14.6426: real time   14.6772
  RMM-DIIS:  cpu time   48.8601: real time   48.9751
    ORTHCH:  cpu time    2.6595: real time    2.6657
       DOS:  cpu time    0.0024: real time    0.0024
    CHARGE:  cpu time    4.1487: real time    4.1585
    MIXING:  cpu time    0.0126: real time    0.0127
    --------------------------------------------
      LOOP:  cpu time   70.9308: real time   71.0980

 eigenvalue-minimisations  :  7624
 total energy-change (2. order) :-0.4657794E+03  (-0.4355331E+02)
 number of electron     696.0000459 magnetization      52.6606103
 augmentation part      123.8189792 magnetization      43.0478610

 Broyden mixing:
  rms(total) = 0.33716E+02    rms(broyden)= 0.33715E+02
  rms(prec ) = 0.37491E+02
  weight for this iteration     100.00

 eigenvalues of (default mixing * dielectric matrix)
  average eigenvalue GAMMA=   0.4247
  0.8287  0.0208

 Free energy of the ion-electron system (eV)
  ---------------------------------------------------
  alpha Z        PSCENC =      1826.57435200
  Ewald energy   TEWEN  =    230022.11912835
  -Hartree energ DENC   =   -278070.42918683
  -exchange      EXHF   =         0.00000000
  -V(xc)+E(xc)   XCENC  =      1371.38916417
  PAW double counting   =     53621.48878959   -52474.61935880
  entropy T*S    EENTRO =        -0.04432846
  eigenvalues    EBANDS =     -4743.27080736
  atomic energy  EATOM  =     47298.05697971
  Solvation  Ediel_sol  =         0.00000000
  ---------------------------------------------------
  free energy    TOTEN  =     -1148.73526763 eV

  energy without entropy =    -1148.69093917  energy(sigma->0) =    -1148.71310340


--------------------------------------------------------------------------------------------------------




--------------------------------------- Iteration      1(   8)  ---------------------------------------


    POTLOK:  cpu time    0.5271: real time    0.5298
    SETDIJ:  cpu time    0.0599: real time    0.0600
    EDDIAG:  cpu time   13.7293: real time   13.7617
  RMM-DIIS:  cpu time   48.3900: real time   48.5042
    ORTHCH:  cpu time    2.7414: real time    2.7485
       DOS:  cpu time    0.0025: real time    0.0025
    CHARGE:  cpu time    3.7396: real time    3.7485
    MIXING:  cpu time    0.0157: real time    0.0157
    --------------------------------------------
      LOOP:  cpu time   69.2054: real time   69.3709

 eigenvalue-minimisations  :  7474
 total energy-change (2. order) : 0.1775431E+03  (-0.4237794E+01)
 number of electron     696.0000457 magnetization      51.3551352
 augmentation part      123.5814680 magnetization      40.6894230

 Broyden mixing:
  rms(total) = 0.27223E+02    rms(broyden)= 0.27223E+02
  rms(prec ) = 0.30590E+02
  weight for this iteration     100.00

 eigenvalues of (default mixing * dielectric matrix)
  average eigenvalue GAMMA=   0.4418
  0.8540  0.2357  0.2357

 Free energy of the ion-electron system (eV)
  ---------------------------------------------------
  alpha Z        PSCENC =      1826.57435200
  Ewald energy   TEWEN  =    230022.11912835
  -Hartree energ DENC   =   -278116.19011927
  -exchange      EXHF   =         0.00000000
  -V(xc)+E(xc)   XCENC  =      1370.25003812
  PAW double counting   =     54693.11616880   -53546.98961501
  entropy T*S    EENTRO =        -0.06399664
  eigenvalues    EBANDS =     -4518.06515197
  atomic energy  EATOM  =     47298.05697971
  Solvation  Ediel_sol  =         0.00000000
  ---------------------------------------------------
  free energy    TOTEN  =      -971.19221592 eV

  energy without entropy =     -971.12821928  energy(sigma->0) =     -971.16021760


--------------------------------------------------------------------------------------------------------




--------------------------------------- Iteration      1(   9)  ---------------------------------------


    POTLOK:  cpu time    0.5741: real time    0.5756
    SETDIJ:  cpu time    0.0662: real time    0.0664
    EDDIAG:  cpu time   14.3336: real time   14.3674
  RMM-DIIS:  cpu time   46.5295: real time   46.6391
    ORTHCH:  cpu time    2.7586: real time    2.7651
       DOS:  cpu time    0.0026: real time    0.0026
    CHARGE:  cpu time    3.8017: real time    3.8106
    MIXING:  cpu time    0.0157: real time    0.0157
    --------------------------------------------
      LOOP:  cpu time   68.0819: real time   68.2424

 eigenvalue-minimisations  :  7196
 total energy-change (2. order) : 0.7379029E+02  (-0.1049838E+02)
 number of electron     696.0000479 magnetization      48.9801599
 augmentation part      127.7642367 magnetization      40.6966083

 Broyden mixing:
  rms(total) = 0.22894E+02    rms(broyden)= 0.22893E+02
  rms(prec ) = 0.26626E+02
  weight for this iteration     100.00

 eigenvalues of (default mixing * dielectric matrix)
  average eigenvalue GAMMA=   0.5014
  1.2148  0.3346  0.2282  0.2282

 Free energy of the ion-electron system (eV)
  ---------------------------------------------------
  alpha Z        PSCENC =      1826.57435200
  Ewald energy   TEWEN  =    230022.11912835
  -Hartree energ DENC   =   -277072.79079103
  -exchange      EXHF   =         0.00000000
  -V(xc)+E(xc)   XCENC  =      1370.13158363
  PAW double counting   =     55537.67293579   -54398.18552593
  entropy T*S    EENTRO =        -0.08029318
  eigenvalues    EBANDS =     -5480.90029260
  atomic energy  EATOM  =     47298.05697971
  Solvation  Ediel_sol  =         0.00000000
  ---------------------------------------------------
  free energy    TOTEN  =      -897.40192326 eV

  energy without entropy =     -897.32163008  energy(sigma->0) =     -897.36177667


--------------------------------------------------------------------------------------------------------




--------------------------------------- Iteration      1(  10)  ---------------------------------------


    POTLOK:  cpu time    0.5375: real time    0.5413
    SETDIJ:  cpu time    0.0655: real time    0.0656
    EDDIAG:  cpu time   14.1260: real time   14.1627
  RMM-DIIS:  cpu time   46.7809: real time   46.9035
    ORTHCH:  cpu time    2.7783: real time    2.7852
       DOS:  cpu time    0.0026: real time    0.0026
    CHARGE:  cpu time    3.5793: real time    3.5878
    MIXING:  cpu time    0.0167: real time    0.0167
    --------------------------------------------
      LOOP:  cpu time   67.8868: real time   68.0656

 eigenvalue-minimisations  :  7322
 total energy-change (2. order) : 0.5906280E+02  (-0.1196663E+02)
 number of electron     696.0000532 magnetization      46.7529129
 augmentation part      124.1189579 magnetization      39.1834063

 Broyden mixing:
  rms(total) = 0.16650E+02    rms(broyden)= 0.16647E+02
  rms(prec ) = 0.19439E+02
  weight for this iteration     100.00

 eigenvalues of (default mixing * dielectric matrix)
  average eigenvalue GAMMA=   0.5128
  1.5708  0.4345  0.2173  0.2173  0.1243

 Free energy of the ion-electron system (eV)
  ---------------------------------------------------
  alpha Z        PSCENC =      1826.57435200
  Ewald energy   TEWEN  =    230022.11912835
  -Hartree energ DENC   =   -277403.16534498
  -exchange      EXHF   =         0.00000000
  -V(xc)+E(xc)   XCENC  =      1369.67758604
  PAW double counting   =     58012.26417326   -56882.07516464
  entropy T*S    EENTRO =        -0.05813008
  eigenvalues    EBANDS =     -5081.73270439
  atomic energy  EATOM  =     47298.05697971
  Solvation  Ediel_sol  =         0.00000000
  ---------------------------------------------------
  free energy    TOTEN  =      -838.33912473 eV

  energy without entropy =     -838.28099466  energy(sigma->0) =     -838.31005970


--------------------------------------------------------------------------------------------------------




--------------------------------------- Iteration      1(  11)  ---------------------------------------


    POTLOK:  cpu time    0.5729: real time    0.5759
    SETDIJ:  cpu time    0.0647: real time    0.0649
    EDDIAG:  cpu time   13.6115: real time   13.6436
  RMM-DIIS:  cpu time   46.5006: real time   46.6101
    ORTHCH:  cpu time    2.8816: real time    2.8884
       DOS:  cpu time    0.0024: real time    0.0024
    CHARGE:  cpu time    3.1867: real time    3.1943
    MIXING:  cpu time    0.0161: real time    0.0161
    --------------------------------------------
      LOOP:  cpu time   66.8365: real time   66.9957

 eigenvalue-minimisations  :  7240
 total energy-change (2. order) : 0.1334214E+03  (-0.1939647E+01)
 number of electron     696.0000534 magnetization      43.2324893
 augmentation part      122.9592219 magnetization      38.4752918

 Broyden mixing:
  rms(total) = 0.11491E+02    rms(broyden)= 0.11491E+02
  rms(prec ) = 0.13990E+02
  weight for this iteration     100.00

 eigenvalues of (default mixing * dielectric matrix)
  average eigenvalue GAMMA=   0.5916
  1.8801  0.4873  0.4873  0.2700  0.2700  0.1549

 Free energy of the ion-electron system (eV)
  ---------------------------------------------------
  alpha Z        PSCENC =      1826.57435200
  Ewald energy   TEWEN  =    230022.11912835
  -Hartree energ DENC   =   -277344.39272434
  -exchange      EXHF   =         0.00000000
  -V(xc)+E(xc)   XCENC  =      1372.80515925
  PAW double counting   =     60779.86079721   -59661.02090246
  entropy T*S    EENTRO =        -0.03281374
  eigenvalues    EBANDS =     -4998.88772395
  atomic energy  EATOM  =     47298.05697971
  Solvation  Ediel_sol  =         0.00000000
  ---------------------------------------------------
  free energy    TOTEN  =      -704.91774798 eV

  energy without entropy =     -704.88493424  energy(sigma->0) =     -704.90134111


--------------------------------------------------------------------------------------------------------




--------------------------------------- Iteration      1(  12)  ---------------------------------------


    POTLOK:  cpu time    0.5692: real time    0.5721
    SETDIJ:  cpu time    0.0652: real time    0.0654
    EDDIAG:  cpu time   13.5885: real time   13.6206
  RMM-DIIS:  cpu time   45.9249: real time   46.0331
    ORTHCH:  cpu time    3.0109: real time    3.0180
       DOS:  cpu time    0.0026: real time    0.0026
    CHARGE:  cpu time    3.1316: real time    3.1390
    MIXING:  cpu time    0.0200: real time    0.0200
    --------------------------------------------
      LOOP:  cpu time   66.3129: real time   66.4707

 eigenvalue-minimisations  :  7169
 total energy-change (2. order) : 0.8805804E+02  (-0.6716479E+01)
 number of electron     696.0000506 magnetization      42.2470656
 augmentation part      125.2294905 magnetization      36.5496814

 Broyden mixing:
  rms(total) = 0.45830E+01    rms(broyden)= 0.45810E+01
  rms(prec ) = 0.49994E+01
  weight for this iteration     100.00

 eigenvalues of (default mixing * dielectric matrix)
  average eigenvalue GAMMA=   0.5576
  1.7804  0.5537  0.5537  0.2682  0.2682  0.3239  0.1550

 Free energy of the ion-electron system (eV)
  ---------------------------------------------------
  alpha Z        PSCENC =      1826.57435200
  Ewald energy   TEWEN  =    230022.11912835
  -Hartree energ DENC   =   -277369.80141245
  -exchange      EXHF   =         0.00000000
  -V(xc)+E(xc)   XCENC  =      1384.42221970
  PAW double counting   =     62510.99238526   -61402.77043327
  entropy T*S    EENTRO =        -0.04737544
  eigenvalues    EBANDS =     -4886.40555311
  atomic energy  EATOM  =     47298.05697971
  Solvation  Ediel_sol  =         0.00000000
  ---------------------------------------------------
  free energy    TOTEN  =      -616.85970926 eV

  energy without entropy =     -616.81233382  energy(sigma->0) =     -616.83602154


--------------------------------------------------------------------------------------------------------




--------------------------------------- Iteration      1(  13)  ---------------------------------------


    POTLOK:  cpu time    0.5153: real time    0.5180
    SETDIJ:  cpu time    0.0630: real time    0.0631
    EDDIAG:  cpu time   14.0036: real time   14.0366
  RMM-DIIS:  cpu time   46.9504: real time   47.0610
    ORTHCH:  cpu time    3.0605: real time    3.0677
       DOS:  cpu time    0.0025: real time    0.0025
    CHARGE:  cpu time    3.2669: real time    3.2747
    MIXING:  cpu time    0.0199: real time    0.0199
    --------------------------------------------
      LOOP:  cpu time   67.8821: real time   68.0435

 eigenvalue-minimisations  :  7296
 total energy-change (2. order) : 0.1451361E+02  (-0.1757885E+01)
 number of electron     696.0000538 magnetization      41.5419907
 augmentation part      124.9893446 magnetization      34.8520026

 Broyden mixing:
  rms(total) = 0.38714E+01    rms(broyden)= 0.38698E+01
  rms(prec ) = 0.40643E+01
  weight for this iteration     100.00

 eigenvalues of (default mixing * dielectric matrix)
  average eigenvalue GAMMA=   0.5221
  1.7201  0.5660  0.5660  0.2645  0.2645  0.1541  0.3209  0.3209

 Free energy of the ion-electron system (eV)
  ---------------------------------------------------
  alpha Z        PSCENC =      1826.57435200
  Ewald energy   TEWEN  =    230022.11912835
  -Hartree energ DENC   =   -277195.60698424
  -exchange      EXHF   =         0.00000000
  -V(xc)+E(xc)   XCENC  =      1381.07182442
  PAW double counting   =     62413.47949378   -61305.82569285
  entropy T*S    EENTRO =        -0.08247224
  eigenvalues    EBANDS =     -5042.13273278
  atomic energy  EATOM  =     47298.05697971
  Solvation  Ediel_sol  =         0.00000000
  ---------------------------------------------------
  free energy    TOTEN  =      -602.34610386 eV

  energy without entropy =     -602.26363162  energy(sigma->0) =     -602.30486774


--------------------------------------------------------------------------------------------------------




--------------------------------------- Iteration      1(  14)  ---------------------------------------


    POTLOK:  cpu time    0.5305: real time    0.5325
    SETDIJ:  cpu time    0.0639: real time    0.0641
    EDDIAG:  cpu time   14.1191: real time   14.1524
  RMM-DIIS:  cpu time   46.4071: real time   46.5164
    ORTHCH:  cpu time    3.0335: real time    3.0406
       DOS:  cpu time    0.0026: real time    0.0026
    CHARGE:  cpu time    3.3751: real time    3.3831
    MIXING:  cpu time    0.0216: real time    0.0216
    --------------------------------------------
      LOOP:  cpu time   67.5533: real time   67.7133

 eigenvalue-minimisations  :  7245
 total energy-change (2. order) :-0.6729946E+01  (-0.5365011E+00)
 number of electron     696.0000505 magnetization      41.0182652
 augmentation part      124.9187624 magnetization      34.0850522

 Broyden mixing:
  rms(total) = 0.40247E+01    rms(broyden)= 0.40239E+01
  rms(prec ) = 0.47891E+01
  weight for this iteration     100.00

 eigenvalues of (default mixing * dielectric matrix)
  average eigenvalue GAMMA=   0.4997
  1.6749  0.5342  0.5342  0.4467  0.4467  0.2656  0.2656  0.1558  0.1740

 Free energy of the ion-electron system (eV)
  ---------------------------------------------------
  alpha Z        PSCENC =      1826.57435200
  Ewald energy   TEWEN  =    230022.11912835
  -Hartree energ DENC   =   -277170.50619377
  -exchange      EXHF   =         0.00000000
  -V(xc)+E(xc)   XCENC  =      1378.04802317
  PAW double counting   =     62299.45427089   -61192.07620686
  entropy T*S    EENTRO =        -0.07760235
  eigenvalues    EBANDS =     -5070.66880122
  atomic energy  EATOM  =     47298.05697971
  Solvation  Ediel_sol  =         0.00000000
  ---------------------------------------------------
  free energy    TOTEN  =      -609.07605008 eV

  energy without entropy =     -608.99844773  energy(sigma->0) =     -609.03724890


--------------------------------------------------------------------------------------------------------




--------------------------------------- Iteration      1(  15)  ---------------------------------------


    POTLOK:  cpu time    0.5150: real time    0.5164
    SETDIJ:  cpu time    0.0635: real time    0.0636
    EDDIAG:  cpu time   13.9662: real time   13.9992
  RMM-DIIS:  cpu time   46.1512: real time   46.2600
    ORTHCH:  cpu time    3.0736: real time    3.0809
       DOS:  cpu time    0.0026: real time    0.0026
    CHARGE:  cpu time    3.7411: real time    3.7500
    MIXING:  cpu time    0.0247: real time    0.0248
    --------------------------------------------
      LOOP:  cpu time   67.5379: real time   67.6975

 eigenvalue-minimisations  :  7190
 total energy-change (2. order) : 0.9868573E+00  (-0.2083092E+00)
 number of electron     696.0000530 magnetization      39.7921662
 augmentation part      124.9660995 magnetization      32.8349304

 Broyden mixing:
  rms(total) = 0.31197E+01    rms(broyden)= 0.31184E+01
  rms(prec ) = 0.34108E+01
  weight for this iteration     100.00

 eigenvalues of (default mixing * dielectric matrix)
  average eigenvalue GAMMA=   0.4936
  1.7396  0.6220  0.6220  0.5180  0.2689  0.2689  0.3782  0.2285  0.1529  0.1373

 Free energy of the ion-electron system (eV)
  ---------------------------------------------------
  alpha Z        PSCENC =      1826.57435200
  Ewald energy   TEWEN  =    230022.11912835
  -Hartree energ DENC   =   -277170.15668981
  -exchange      EXHF   =         0.00000000
  -V(xc)+E(xc)   XCENC  =      1376.32404358
  PAW double counting   =     62049.91792971   -60942.36431165
  entropy T*S    EENTRO =        -0.07504917
  eigenvalues    EBANDS =     -5068.48557552
  atomic energy  EATOM  =     47298.05697971
  Solvation  Ediel_sol  =         0.00000000
  ---------------------------------------------------
  free energy    TOTEN  =      -608.08919280 eV

  energy without entropy =     -608.01414364  energy(sigma->0) =     -608.05166822


--------------------------------------------------------------------------------------------------------




--------------------------------------- Iteration      1(  16)  ---------------------------------------


    POTLOK:  cpu time    0.5340: real time    0.5371
[...]
   -.201E+01 0.339E+02 0.604E+03   0.200E+01 -.355E+02 -.604E+03   0.530E-01 0.161E+01 -.373E-01   0.126E-01 -.509E-02 0.465E-01
   -.392E-02 -.361E+01 0.167E+04   0.643E-02 0.172E+01 -.167E+04   -.541E-01 0.181E+01 -.471E+00   -.175E-02 0.606E-02 0.395E-01
   -.436E+00 -.361E+01 0.167E+04   0.420E+00 0.173E+01 -.167E+04   0.584E-01 0.180E+01 -.473E+00   0.110E-01 0.510E-02 0.422E-01
   0.264E+01 -.618E-13 0.170E+03   -.259E+01 0.397E-13 -.167E+03   -.502E-01 0.000E+00 -.238E+01   -.139E-01 0.680E-12 0.220E-01
   -.273E+01 -.119E-11 0.169E+03   0.270E+01 0.242E-12 -.167E+03   0.180E-01 0.000E+00 -.237E+01   0.918E-02 -.295E-11 0.222E-01
   0.549E+00 0.228E-12 0.121E+04   -.535E+00 0.144E-13 -.121E+04   -.135E-01 0.000E+00 0.242E+00   -.108E-01 -.139E-11 0.694E-01
   -.562E+00 -.334E-12 0.121E+04   0.549E+00 -.186E-13 -.121E+04   0.186E-01 0.000E+00 0.230E+00   0.798E-02 -.354E-12 0.686E-01
   -.141E-01 -.339E+02 0.606E+03   0.147E-01 0.355E+02 -.606E+03   -.528E-01 -.162E+01 -.496E-01   -.236E-02 0.241E-02 0.468E-01
   -.201E+01 -.339E+02 0.604E+03   0.200E+01 0.355E+02 -.604E+03   0.530E-01 -.161E+01 -.373E-01   0.126E-01 0.509E-02 0.465E-01
   -.392E-02 0.361E+01 0.167E+04   0.643E-02 -.172E+01 -.167E+04   -.541E-01 -.181E+01 -.471E+00   -.175E-02 -.606E-02 0.395E-01
   -.436E+00 0.361E+01 0.167E+04   0.420E+00 -.173E+01 -.167E+04   0.584E-01 -.180E+01 -.473E+00   0.110E-01 -.510E-02 0.422E-01
   0.200E+02 0.248E-12 -.107E+04   -.206E+02 0.221E-13 0.107E+04   0.601E+00 0.000E+00 -.101E+01   -.339E-02 -.846E-13 -.493E-01
   -.212E+02 -.328E-11 -.107E+04   0.218E+02 0.250E-12 0.107E+04   -.663E+00 0.000E+00 -.941E+00   0.330E-02 -.600E-12 -.562E-01
   0.370E+01 0.251E-12 -.128E+02   -.390E+01 -.607E-13 0.110E+02   0.188E+00 0.000E+00 0.181E+01   -.836E-02 -.815E-12 0.143E-01
   -.369E+01 -.453E-13 -.136E+02   0.384E+01 -.185E-11 0.120E+02   -.144E+00 0.000E+00 0.159E+01   0.318E-02 0.304E-11 0.131E-01
   -.756E+00 0.537E+02 -.141E+04   0.796E+00 -.561E+02 0.140E+04   -.521E-01 0.238E+01 0.960E+01   0.528E-02 0.909E-02 -.307E-01
   -.970E+01 0.360E+02 -.153E+04   0.968E+01 -.382E+02 0.153E+04   0.627E-01 0.221E+01 -.301E+00   0.869E-02 0.139E-01 -.397E-01
   -.120E+01 0.305E+02 -.439E+03   0.129E+01 -.321E+02 0.439E+03   -.929E-01 0.162E+01 0.354E+00   -.171E-02 -.126E-03 -.177E-01
   -.636E+01 0.315E+02 -.452E+03   0.627E+01 -.331E+02 0.452E+03   0.851E-01 0.162E+01 0.347E+00   0.731E-02 -.871E-03 -.229E-01
   0.940E+01 0.196E-11 -.198E+04   -.897E+01 0.266E-13 0.201E+04   -.407E+00 0.000E+00 -.295E+02   -.126E-01 -.430E-12 -.132E-01
   -.964E+01 0.340E-11 -.198E+04   0.927E+01 0.509E-13 0.201E+04   0.333E+00 0.000E+00 -.294E+02   0.207E-01 0.579E-14 -.167E-01
   0.185E+02 0.235E-12 -.891E+03   -.176E+02 -.395E-13 0.898E+03   -.812E+00 0.000E+00 -.658E+01   -.583E-02 -.527E-13 -.234E-01
   -.197E+02 0.436E-14 -.891E+03   0.189E+02 -.189E-11 0.897E+03   0.746E+00 0.000E+00 -.652E+01   0.640E-02 0.889E-12 -.244E-01
   -.756E+00 -.537E+02 -.141E+04   0.796E+00 0.561E+02 0.140E+04   -.521E-01 -.238E+01 0.960E+01   0.528E-02 -.909E-02 -.307E-01
   -.970E+01 -.360E+02 -.153E+04   0.968E+01 0.382E+02 0.153E+04   0.627E-01 -.221E+01 -.301E+00   0.869E-02 -.139E-01 -.397E-01
   -.120E+01 -.305E+02 -.439E+03   0.129E+01 0.321E+02 0.439E+03   -.929E-01 -.162E+01 0.354E+00   -.171E-02 0.126E-03 -.177E-01
   -.636E+01 -.315E+02 -.452E+03   0.627E+01 0.331E+02 0.452E+03   0.851E-01 -.162E+01 0.347E+00   0.731E-02 0.871E-03 -.229E-01
   -.388E+02 0.470E-12 -.205E+04   0.327E+02 -.258E-13 0.208E+04   0.717E+01 0.000E+00 -.311E+02   0.777E-04 0.481E-12 0.107E-02
   0.389E+02 0.154E-12 -.205E+04   -.326E+02 0.150E-13 0.208E+04   -.737E+01 0.000E+00 -.311E+02   0.464E-02 0.411E-12 0.372E-02
 -----------------------------------------------------------------------------------------------
   0.438E+00 0.756E-10 0.172E+03   0.347E-11 0.146E-12 0.136E-11   -.742E+00 -.222E-15 -.173E+03   0.138E-01 -.201E-11 0.650E+00
 
 
 POSITION                                       TOTAL-FORCE (eV/Angst)
 -----------------------------------------------------------------------------------
      1.60107      3.23512      4.85268        -0.005933      0.000000     -0.313435
      4.80320      3.23512      4.85268         0.012276      0.000000     -0.316405
      1.60107      0.00000      1.61756        -0.009147      0.000000     -0.949386
      4.80320      0.00000      1.61756         0.013214      0.000000     -0.948244
      0.00000      3.23512      1.61756        -0.000131      0.000000      1.569994
      3.20213      3.23512      1.61756         0.006298      0.000000      1.582702
      0.00000      0.00000      4.85268         0.053923      0.000000     -0.056579
      3.20213      0.00000      4.85268        -0.063033      0.000000     -0.069313
      1.60080      3.23512     11.34153         0.000503      0.000000      0.004957
      4.80884      3.23512     11.35268         0.000799      0.000000     -0.014638
      1.59969     -0.00000      8.10926        -0.004553      0.000000      0.000851
      4.79569     -0.00000      8.09458         0.002407      0.000000     -0.003537
      0.00071      3.23512      8.10403        -0.004129      0.000000      0.002923
      3.20069      3.23512      8.10368         0.005730      0.000000      0.001955
     12.79988     -0.00000     11.44923         0.016932      0.000000      0.021110
      3.20674     -0.00000     11.44966        -0.020866      0.000000      0.012149
      0.00000      3.23512      3.61324         0.002132      0.000000     -0.099410
      3.20213      3.23512      3.61324         0.001342      0.000000     -0.105247
      0.00000      0.00000      0.37812         0.002065      0.000000      0.830635
      3.20213      0.00000      0.37812         0.004797      0.000000      0.821492
      1.60107      5.23080      4.85268        -0.051496     -0.031090     -0.043727
      4.80320      5.23080      4.85268         0.055219     -0.026032     -0.029271
      1.60107      1.99568      1.61756        -0.050600     -0.077959     -0.670661
      4.80320      1.99568      1.61756         0.055758     -0.078225     -0.670126
      0.00000      3.23512      6.09212         0.031416      0.000000      0.363840
      3.20213      3.23512      6.09212        -0.028458      0.000000      0.367439
      0.00000      0.00000      2.85700        -0.007431      0.000000      0.193451
      3.20213      0.00000      2.85700         0.018253      0.000000      0.196904
      1.60107      1.23944      4.85268        -0.051496      0.031090     -0.043727
      4.80320      1.23944      4.85268         0.055219      0.026032     -0.029271
      1.60107      4.47456      1.61756        -0.050600      0.077959     -0.670661
      4.80320      4.47456      1.61756         0.055758      0.078225     -0.670126
     12.80356      3.23512     10.09292         0.002037      0.000000     -0.013658
      3.20803      3.23512     10.08982        -0.004310      0.000000     -0.004043
      0.00460     -0.00000      6.85746         0.019213      0.000000      0.003660
      3.19419     -0.00000      6.85591        -0.006688      0.000000      0.010431
      1.59838      5.23574     11.28891        -0.006197      0.001823     -0.006598
      4.83042      5.23893     11.37636        -0.050493     -0.006911     -0.068308
      1.59864      1.99052      8.09982        -0.002276     -0.006403      0.007767
      4.80083      1.99012      8.08695        -0.005414     -0.006936      0.002918
      0.00284      3.23512     12.52497        -0.007251      0.000000     -0.001503
      3.19988      3.23512     12.52619         0.009256      0.000000     -0.002392
     12.79819     -0.00000      9.35773        -0.010714      0.000000     -0.011522
      3.20949     -0.00000      9.35805        -0.002280      0.000000      0.000512
      1.59838      1.23451     11.28891        -0.006197     -0.001823     -0.006598
      4.83042      1.23131     11.37636        -0.050493      0.006911     -0.068308
      1.59864      4.47972      8.09982        -0.002276      0.006403      0.007767
      4.80083      4.48012      8.08695        -0.005414      0.006936      0.002918
      3.16708     -0.00000     13.24624         0.005865      0.000000     -0.004368
      0.03746     -0.00000     13.24443         0.018077      0.000000      0.019757
      8.00533      3.23512      4.85268        -0.005832      0.000000     -0.333566
     11.20747      3.23512      4.85268         0.016687      0.000000     -0.312658
      8.00533      0.00000      1.61756        -0.008235      0.000000     -0.947353
     11.20747      0.00000      1.61756         0.013001      0.000000     -0.948636
      6.40427      3.23512      1.61756         0.004471      0.000000      1.569249
      9.60640      3.23512      1.61756         0.000987      0.000000      1.580906
      6.40427      0.00000      4.85268         0.026615      0.000000     -0.079985
      9.60640      0.00000      4.85268        -0.033179      0.000000     -0.105669
      8.00356      3.23512     11.29369        -0.003737      0.000000     -0.005445
     11.19997      3.23512     11.35559        -0.006970      0.000000     -0.009407
      8.00324     -0.00000      8.09831        -0.000255      0.000000     -0.062499
     11.21272     -0.00000      8.09341        -0.001464      0.000000     -0.002066
      6.40003      3.23512      8.09153         0.011382      0.000000      0.001139
      9.60847      3.23512      8.09176        -0.003245      0.000000      0.001557
      6.43838     -0.00000     11.40482        -0.104339      0.000000     -0.068106
      9.56870     -0.00000     11.40303         0.088356      0.000000     -0.043201
      6.40427      3.23512      3.61324        -0.003024      0.000000     -0.109330
      9.60640      3.23512      3.61324         0.008134      0.000000     -0.113894
      6.40427      0.00000      0.37812         0.006375      0.000000      0.827439
      9.60640      0.00000      0.37812        -0.000089      0.000000      0.818154
      8.00533      5.23080      4.85268        -0.051630     -0.025565     -0.039657
     11.20747      5.23080      4.85268         0.056561     -0.026005     -0.030736
      8.00533      1.99568      1.61756        -0.050460     -0.076651     -0.671621
     11.20747      1.99568      1.61756         0.056777     -0.078242     -0.669965
      6.40427      3.23512      6.09212        -0.006494      0.000000      0.227046
      9.60640      3.23512      6.09212        -0.000137      0.000000      0.237139
      6.40427      0.00000      2.85700        -0.006674      0.000000      0.187137
      9.60640      0.00000      2.85700         0.016677      0.000000      0.189532
      8.00533      1.23944      4.85268        -0.051630      0.025565     -0.039657
     11.20747      1.23944      4.85268         0.056561      0.026005     -0.030736
      8.00533      4.47456      1.61756        -0.050460      0.076651     -0.671621
     11.20747      4.47456      1.61756         0.056777      0.078242     -0.669965
      6.38961      3.23512     10.06630         0.008443      0.000000      0.011915
      9.61857      3.23512     10.06841        -0.010335      0.000000      0.002494
      6.40344     -0.00000      6.85671        -0.023414      0.000000     -0.004166
      9.60449     -0.00000      6.85368         0.012954      0.000000     -0.017821
      8.00188      5.22061     11.11359        -0.003975      0.045979      0.133847
     11.17742      5.23899     11.38522         0.046524     -0.008421     -0.052367
      8.00196      1.99238      8.08141        -0.002869      0.000793     -0.001421
     11.21192      1.99105      8.08473        -0.001922     -0.005874      0.002215
      6.43512      3.23512     12.49972         0.008854      0.000000     -0.008797
      9.56962      3.23512     12.50342        -0.011787      0.000000     -0.002496
      6.37707     -0.00000      9.33246         0.056051      0.000000     -0.051795
      9.62911     -0.00000      9.33090        -0.054852      0.000000     -0.054849
      8.00188      1.24963     11.11359        -0.003975     -0.045979      0.133847
     11.17742      1.23126     11.38522         0.046524      0.008421     -0.052367
      8.00196      4.47786      8.08141        -0.002869     -0.000793     -0.001421
     11.21192      4.47919      8.08473        -0.001922      0.005874      0.002215
      9.17703     -0.00000     13.16200         1.019132      0.000000      0.085282
      6.83804     -0.00000     13.16166        -1.052683      0.000000      0.067088
 -----------------------------------------------------------------------------------
    total drift:                               -0.289752      0.000000      0.022724


--------------------------------------------------------------------------------------------------------



  FREE ENERGIE OF THE ION-ELECTRON SYSTEM (eV)
  ---------------------------------------------------
  free  energy   TOTEN  =      -637.53884585 eV

  energy  without entropy=     -637.47534121  energy(sigma->0) =     -637.50709353
 
 d Force = 0.1447576E-02[ 0.140E-02, 0.149E-02]  d Energy = 0.1448184E-02-0.608E-06
 d Force =-0.6675384E+01[-0.667E+01,-0.668E+01]  d Ewald  =-0.6675385E+01 0.167E-05


--------------------------------------------------------------------------------------------------------


    POTLOK:  cpu time    0.4862: real time    0.4873


--------------------------------------------------------------------------------------------------------


 NEB: the previous image is higher in energy: F
 NEB: the next image is higher in energy    : T
 NEB: only next energy greater

 NEB: Tangent
 ----------------------------------------------
      0.00000      0.00000      0.00000
      0.00000      0.00000      0.00000
      0.00000      0.00000      0.00000
      0.00000      0.00000      0.00000
      0.00000      0.00000      0.00000
      0.00000      0.00000      0.00000
      0.00000      0.00000      0.00000
      0.00000      0.00000      0.00000
     -0.00078      0.00000     -0.00186
     -0.00241      0.00000      0.00971
      0.00012      0.00000      0.00140
     -0.00313      0.00000     -0.00301
      0.00214      0.00000     -0.00140
     -0.00166      0.00000     -0.00053
     -0.01452      0.00000     -0.00162
      0.01185      0.00000     -0.00061
      0.00000      0.00000      0.00000
      0.00000      0.00000      0.00000
      0.00000      0.00000      0.00000
      0.00000      0.00000      0.00000
      0.00000      0.00000      0.00000
      0.00000      0.00000      0.00000
      0.00000      0.00000      0.00000
      0.00000      0.00000      0.00000
      0.00000      0.00000      0.00000
      0.00000      0.00000      0.00000
      0.00000      0.00000      0.00000
      0.00000      0.00000      0.00000
      0.00000      0.00000      0.00000
      0.00000      0.00000      0.00000
      0.00000      0.00000      0.00000
      0.00000      0.00000      0.00000
     -0.00325      0.00000      0.00062
      0.00334      0.00000      0.00208
      0.00016      0.00000     -0.00249
      0.00023      0.00000     -0.00291
     -0.00202      0.00330      0.01268
      0.02807      0.00211      0.04777
     -0.00013      0.00044      0.00283
     -0.00275      0.00466     -0.00346
     -0.00154      0.00000      0.00553
     -0.00015      0.00000      0.00740
      0.00177      0.00000     -0.00066
     -0.00085      0.00000      0.00160
     -0.00202     -0.00330      0.01268
      0.02807     -0.00211      0.04777
     -0.00013     -0.00044      0.00283
     -0.00275     -0.00466     -0.00346
      0.00053      0.00000      0.00210
     -0.00214      0.00000     -0.00066
      0.00000      0.00000      0.00000
      0.00000      0.00000      0.00000
      0.00000      0.00000      0.00000
      0.00000      0.00000      0.00000
      0.00000      0.00000      0.00000
      0.00000      0.00000      0.00000
      0.00000      0.00000      0.00000
      0.00000      0.00000      0.00000
     -0.00136      0.00000     -0.00496
     -0.00022      0.00000      0.00612
     -0.00139      0.00000      0.03201
      0.00282      0.00000     -0.00092
     -0.00284      0.00000     -0.00350
      0.00295      0.00000     -0.00239
      0.06046      0.00000      0.02633
     -0.06246      0.00000      0.01279
      0.00000      0.00000      0.00000
      0.00000      0.00000      0.00000
      0.00000      0.00000      0.00000
      0.00000      0.00000      0.00000
      0.00000      0.00000      0.00000
      0.00000      0.00000      0.00000
      0.00000      0.00000      0.00000
      0.00000      0.00000      0.00000
      0.00000      0.00000      0.00000
      0.00000      0.00000      0.00000
      0.00000      0.00000      0.00000
      0.00000      0.00000      0.00000
      0.00000      0.00000      0.00000
      0.00000      0.00000      0.00000
      0.00000      0.00000      0.00000
      0.00000      0.00000      0.00000
     -0.01570      0.00000     -0.00620
      0.00958      0.00000     -0.00396
      0.00418      0.00000      0.00288
     -0.00406      0.00000      0.00593
      0.00233     -0.02894     -0.10769
     -0.03113      0.00341      0.02947
     -0.00091      0.00292     -0.00232
      0.00345      0.00398     -0.00116
      0.00098      0.00000     -0.00031
     -0.00287      0.00000     -0.00150
     -0.04311      0.00000      0.01934
      0.03591      0.00000      0.02080
      0.00233      0.02894     -0.10769
     -0.03113     -0.00341      0.02947
     -0.00091     -0.00292     -0.00232
      0.00345     -0.00398     -0.00116
     -0.67935      0.00000     -0.07316
      0.69223      0.00000     -0.06376

 NEB: forces: par spring, perp REAL, dneb     0.009787    0.108137    0.000000
 NEB: distance to prev, next image, angle between     0.234539    0.232581  168.618840
 NEB: projections on to tangent (spring, REAL)    -0.009787   -1.502874

 stress matrix after NEB project (eV)
    -22.05188      0.00000      0.00967
      0.00000     -7.56331      0.00000
      0.00967      0.00000     -6.83721
  FORCES: max atom, RMS     0.033997    0.010858
  FORCE total and by dimension    0.108579    0.028797
  Stress total and by dimension   24.294792   22.051885
 Quasi-Newton relaxation of ions (Broydens 2nd method)
  g(Force)  = 0.232E-02   g(Stress)= 0.000E+00

 retain information from N= 10 steps
 eigenvalues of (default step * inverse Hessian matrix)
  average eigenvalue of G=   2.3254
 eigenvalue spectrum of G is  7.6994  7.6994  1.8815  1.8815  0.8975  0.8975  0.5983  0.5983  0.5504  0.5504


--------------------------------------------------------------------------------------------------------


  
 reached required accuracy - stopping structural energy minimisation
     LOOP+:  cpu time  466.1694: real time  467.2818
    4ORBIT:  cpu time    0.0000: real time    0.0000

 total amount of memory used by VASP MPI-rank0   511740. kBytes
=======================================================================

   base      :      30000. kBytes
   nonlr-proj:      12770. kBytes
   fftplans  :      18109. kBytes
   grid      :      50594. kBytes
   one-center:       1555. kBytes
   wavefun   :     398712. kBytes
 
  
  
 General timing and accounting informations for this job:
 ========================================================
  
                  Total CPU time used (sec):    17128.598
                            User time (sec):    16274.286
                          System time (sec):      854.312
                         Elapsed time (sec):    17169.964
  
                   Maximum memory used (kb):      630024.
                   Average memory used (kb):           0.
  
                          Minor page faults:      3709393
                          Major page faults:          149
                 Voluntary context switches:         5068
