       N       E                     dE             d eps       ncg     rms          rms(c)
DAV:   1     0.752735004150E+04    0.75274E+04   -0.30869E+05  8800   0.136E+03
DAV:   2     0.483024011498E+03   -0.70443E+04   -0.65046E+04  9200   0.399E+02
DAV:   3    -0.702808410905E+03   -0.11858E+04   -0.11432E+04 12160   0.165E+02
DAV:   4    -0.755424227932E+03   -0.52616E+02   -0.51379E+02 11120   0.351E+01
DAV:   5    -0.756823138161E+03   -0.13989E+01   -0.13908E+01 11320   0.627E+00    0.172E+02
RMM:   6    -0.651798637673E+03    0.10502E+03   -0.71366E+02  8846   0.394E+01    0.122E+02
RMM:   7    -0.216419478398E+04   -0.15124E+04   -0.93740E+02 10238   0.289E+01    0.398E+02
RMM:   8    -0.205067545342E+04    0.11352E+03   -0.23493E+02 11281   0.167E+01    0.367E+02
RMM:   9    -0.761784455378E+03    0.12889E+04   -0.35203E+02  8845   0.224E+01    0.230E+02
RMM:  10    -0.759783952471E+03    0.20005E+01   -0.25304E+01  9177   0.843E+00    0.250E+02
RMM:  11    -0.667569563968E+03    0.92214E+02   -0.21782E+01  8805   0.645E+00    0.132E+02
RMM:  12    -0.821268269735E+03   -0.15370E+03   -0.12155E+02  8853   0.157E+01    0.271E+02
RMM:  13    -0.793237447328E+03    0.28031E+02   -0.86632E+00  9984   0.417E+00    0.261E+02
RMM:  14    -0.787280641931E+03    0.59568E+01   -0.94633E-01 10186   0.117E+00    0.263E+02
RMM:  15    -0.779674461792E+03    0.76062E+01   -0.20177E-01  9530   0.610E-01    0.255E+02
RMM:  16    -0.779010448350E+03    0.66401E+00   -0.22406E+00  8819   0.206E+00    0.244E+02
RMM:  17    -0.738642190808E+03    0.40368E+02   -0.44841E+00  8821   0.307E+00    0.219E+02
RMM:  18    -0.670619235649E+03    0.68023E+02   -0.17747E+01  8802   0.645E+00    0.126E+02
RMM:  19    -0.638509114115E+03    0.32110E+02   -0.78150E+00  8817   0.418E+00    0.895E+01
RMM:  20    -0.625899348291E+03    0.12610E+02   -0.64741E+00  8825   0.372E+00    0.786E+01
RMM:  21    -0.613600747249E+03    0.12299E+02   -0.16049E+00  8863   0.195E+00    0.672E+01
RMM:  22    -0.611048161614E+03    0.25526E+01   -0.16190E+00  8811   0.193E+00    0.615E+01
RMM:  23    -0.611884927879E+03   -0.83677E+00   -0.55715E-01  8875   0.117E+00    0.630E+01
RMM:  24    -0.612299479589E+03   -0.41455E+00   -0.11728E+00  8802   0.168E+00    0.588E+01
RMM:  25    -0.612874156451E+03   -0.57468E+00   -0.59885E-01  8828   0.123E+00    0.587E+01
RMM:  26    -0.612781883767E+03    0.92273E-01   -0.14121E+00  8802   0.181E+00    0.566E+01
RMM:  27    -0.615560377922E+03   -0.27785E+01   -0.17061E+00  8800   0.197E+00    0.567E+01
RMM:  28    -0.614060355234E+03    0.15000E+01   -0.87315E-01  8806   0.140E+00    0.520E+01
RMM:  29    -0.614218003944E+03   -0.15765E+00   -0.28748E-01  8830   0.856E-01    0.499E+01
RMM:  30    -0.615019796736E+03   -0.80179E+00   -0.13418E+00  8802   0.175E+00    0.424E+01
RMM:  31    -0.615650978136E+03   -0.63118E+00   -0.11308E+00  8860   0.148E+00    0.410E+01
RMM:  32    -0.615881731951E+03   -0.23075E+00   -0.23379E-01  8836   0.746E-01    0.395E+01
RMM:  33    -0.615903670480E+03   -0.21939E-01   -0.30418E-02 10242   0.222E-01    0.393E+01
RMM:  34    -0.615947710639E+03   -0.44040E-01   -0.29843E-02  8800   0.264E-01    0.386E+01
RMM:  35    -0.618624050900E+03   -0.26763E+01   -0.11906E+00  8800   0.162E+00    0.391E+01
RMM:  36    -0.621980335149E+03   -0.33563E+01   -0.14529E+00  8802   0.172E+00    0.471E+01
RMM:  37    -0.626893175841E+03   -0.49128E+01   -0.24020E+00  8828   0.222E+00    0.648E+01
RMM:  38    -0.626972385228E+03   -0.79209E-01   -0.26157E-01  9333   0.799E-01    0.646E+01
RMM:  39    -0.626967081686E+03    0.53035E-02   -0.49573E-02  8854   0.329E-01    0.624E+01
RMM:  40    -0.627705884969E+03   -0.73880E+00   -0.20385E-01  8800   0.683E-01    0.589E+01
RMM:  41    -0.627751361501E+03   -0.45477E-01   -0.13738E-01  8802   0.558E-01    0.563E+01
RMM:  42    -0.627534189442E+03    0.21717E+00   -0.79297E-02  8800   0.440E-01    0.530E+01
RMM:  43    -0.627286493447E+03    0.24770E+00   -0.79279E-02  8808   0.417E-01    0.493E+01
RMM:  44    -0.626944853171E+03    0.34164E+00   -0.52667E-02  8837   0.341E-01    0.453E+01
RMM:  45    -0.626871549453E+03    0.73304E-01   -0.80167E-03  9167   0.162E-01    0.447E+01
RMM:  46    -0.626249187634E+03    0.62236E+00   -0.17824E-01  8804   0.621E-01    0.369E+01
RMM:  47    -0.625929575304E+03    0.31961E+00   -0.25135E-01  8800   0.753E-01    0.281E+01
RMM:  48    -0.625889832469E+03    0.39743E-01   -0.46441E-02  9132   0.355E-01    0.268E+01
RMM:  49    -0.625867865485E+03    0.21967E-01   -0.75645E-03  9911   0.130E-01    0.265E+01
RMM:  50    -0.626528413826E+03   -0.66055E+00   -0.68038E-02  8800   0.345E-01    0.249E+01
RMM:  51    -0.626485124069E+03    0.43290E-01   -0.91954E-03  8803   0.241E-01    0.248E+01
RMM:  52    -0.626913701185E+03   -0.42858E+00   -0.12302E-02  8830   0.163E-01    0.259E+01
RMM:  53    -0.626855424393E+03    0.58277E-01   -0.29335E-03  8805   0.106E-01    0.258E+01
RMM:  54    -0.626722480896E+03    0.13294E+00   -0.22017E-02  8801   0.211E-01    0.236E+01
RMM:  55    -0.626818743787E+03   -0.96263E-01   -0.71228E-02  8800   0.375E-01    0.208E+01
RMM:  56    -0.626447854519E+03    0.37089E+00   -0.42450E-02  8828   0.277E-01    0.192E+01
RMM:  57    -0.626367477132E+03    0.80377E-01   -0.58223E-02  8802   0.310E-01    0.178E+01
RMM:  58    -0.627076402697E+03   -0.70893E+00   -0.38353E-01  8800   0.785E-01    0.200E+01
RMM:  59    -0.626873695954E+03    0.20271E+00   -0.41202E-02  8978   0.348E-01    0.193E+01
RMM:  60    -0.626862845826E+03    0.10850E-01   -0.59802E-03 10042   0.974E-02
   1 F= -.62686285E+03 E0= -.62682364E+03  d E =-.784098E-01  mag=    12.4382
       N       E                     dE             d eps       ncg     rms          rms(c)
DAV:   1    -0.626790123411E+03    0.83573E-01   -0.12148E+00  9280   0.154E+00    0.192E+01
RMM:   2    -0.626770994324E+03    0.19129E-01   -0.29276E-02  8800   0.257E-01    0.188E+01
RMM:   3    -0.626667878751E+03    0.10312E+00   -0.84208E-03  8800   0.147E-01    0.183E+01
RMM:   4    -0.626330680781E+03    0.33720E+00   -0.31437E-02  8800   0.271E-01    0.170E+01
RMM:   5    -0.626189830758E+03    0.14085E+00   -0.11452E-01  8800   0.504E-01    0.170E+01
RMM:   6    -0.625737534070E+03    0.45230E+00   -0.27054E-01  8800   0.764E-01    0.143E+01
RMM:   7    -0.626343620741E+03   -0.60609E+00   -0.12047E+00  8800   0.156E+00    0.222E+01
RMM:   8    -0.626179927582E+03    0.16369E+00   -0.81760E-02  8947   0.550E-01    0.207E+01
RMM:   9    -0.625663598008E+03    0.51633E+00   -0.10760E-01  8800   0.496E-01    0.178E+01
RMM:  10    -0.625933250599E+03   -0.26965E+00   -0.69487E-02  8800   0.417E-01    0.171E+01
RMM:  11    -0.625737884413E+03    0.19537E+00   -0.13398E-01  8800   0.553E-01    0.162E+01
RMM:  12    -0.626386181084E+03   -0.64830E+00   -0.10142E+00  8800   0.144E+00    0.191E+01
RMM:  13    -0.626240329037E+03    0.14585E+00   -0.14805E-01  8820   0.758E-01    0.188E+01
RMM:  14    -0.626372100095E+03   -0.13177E+00   -0.26312E-02  9602   0.233E-01    0.195E+01
RMM:  15    -0.626576411573E+03   -0.20431E+00   -0.36271E-03  8866   0.992E-02    0.200E+01
RMM:  16    -0.625940435636E+03    0.63598E+00   -0.33651E-02  8800   0.247E-01    0.184E+01
RMM:  17    -0.625906168794E+03    0.34267E-01   -0.12873E-01  8803   0.545E-01    0.183E+01
RMM:  18    -0.625719854542E+03    0.18631E+00   -0.50943E-02  8807   0.339E-01    0.179E+01
RMM:  19    -0.625603966121E+03    0.11589E+00   -0.10195E-02  8992   0.148E-01    0.175E+01
RMM:  20    -0.625614649063E+03   -0.10683E-01   -0.12480E-03 10264   0.454E-02    0.176E+01
RMM:  21    -0.625543109452E+03    0.71540E-01   -0.40960E-03  8800   0.905E-02    0.171E+01
RMM:  22    -0.626042716135E+03   -0.49961E+00   -0.97762E-02  8800   0.455E-01    0.197E+01
RMM:  23    -0.625810139611E+03    0.23258E+00   -0.49835E-02  8805   0.312E-01    0.183E+01
RMM:  24    -0.625669796834E+03    0.14034E+00   -0.79289E-03  8800   0.144E-01    0.178E+01
RMM:  25    -0.625149825291E+03    0.51997E+00   -0.13995E-01  8800   0.515E-01    0.157E+01
RMM:  26    -0.625151598441E+03   -0.17732E-02   -0.41271E-02  8801   0.291E-01    0.160E+01
RMM:  27    -0.624835242794E+03    0.31636E+00   -0.10414E-01  8800   0.487E-01    0.144E+01
RMM:  28    -0.624406193991E+03    0.42905E+00   -0.85449E-02  8802   0.412E-01    0.135E+01
RMM:  29    -0.624485001228E+03   -0.78807E-01   -0.21049E-02  8827   0.233E-01    0.143E+01
RMM:  30    -0.624570647087E+03   -0.85646E-01   -0.15648E-02  8803   0.185E-01    0.153E+01
RMM:  31    -0.624606888238E+03   -0.36241E-01   -0.16932E-03  8855   0.771E-02    0.153E+01
RMM:  32    -0.624449955563E+03    0.15693E+00   -0.15959E-01  8800   0.556E-01    0.182E+01
RMM:  33    -0.624594085718E+03   -0.14413E+00   -0.39005E-02  8800   0.315E-01    0.174E+01
RMM:  34    -0.624530946692E+03    0.63139E-01   -0.11262E-02  8801   0.161E-01    0.174E+01
RMM:  35    -0.624641846912E+03   -0.11090E+00   -0.32875E-02  8800   0.260E-01    0.189E+01
RMM:  36    -0.624526595288E+03    0.11525E+00   -0.92784E-02  8800   0.418E-01    0.186E+01
RMM:  37    -0.623755304022E+03    0.77129E+00   -0.20804E+00  8800   0.194E+00    0.217E+01
RMM:  38    -0.623016715438E+03    0.73859E+00   -0.63134E-01  8816   0.104E+00    0.225E+01
RMM:  39    -0.622995801102E+03    0.20914E-01   -0.42072E-02  9544   0.241E-01    0.224E+01
RMM:  40    -0.622423011590E+03    0.57279E+00   -0.63456E-02  8811   0.361E-01    0.223E+01
RMM:  41    -0.622711840804E+03   -0.28883E+00   -0.22406E-02  8800   0.225E-01    0.221E+01
RMM:  42    -0.624113984853E+03   -0.14021E+01   -0.12635E-01  8800   0.519E-01    0.228E+01
RMM:  43    -0.625535100967E+03   -0.14211E+01   -0.43236E-01  8800   0.871E-01    0.232E+01
RMM:  44    -0.626457701584E+03   -0.92260E+00   -0.30445E-01  8802   0.738E-01    0.227E+01
RMM:  45    -0.626146197878E+03    0.31150E+00   -0.94414E-01  8800   0.135E+00    0.199E+01
RMM:  46    -0.624861734198E+03    0.12845E+01   -0.26593E-01  8802   0.696E-01    0.162E+01
RMM:  47    -0.622868787845E+03    0.19929E+01   -0.98213E-01  8800   0.140E+00    0.105E+01
RMM:  48    -0.623128567175E+03   -0.25978E+00   -0.11514E-01  8857   0.573E-01    0.100E+01
RMM:  49    -0.622952701690E+03    0.17587E+00   -0.21868E-02  8870   0.247E-01    0.102E+01
RMM:  50    -0.623972787897E+03   -0.10201E+01   -0.41635E-01  8800   0.921E-01    0.102E+01
RMM:  51    -0.624398164359E+03   -0.42538E+00   -0.20312E-01  8800   0.593E-01    0.983E+00
RMM:  52    -0.624809663628E+03   -0.41150E+00   -0.29229E-01  8800   0.749E-01    0.102E+01
RMM:  53    -0.625002288310E+03   -0.19262E+00   -0.24010E-01  8801   0.657E-01    0.104E+01
RMM:  54    -0.624977432537E+03    0.24856E-01   -0.23791E-01  8802   0.675E-01    0.107E+01
RMM:  55    -0.624602989897E+03    0.37444E+00   -0.33122E-01  8804   0.743E-01    0.105E+01
RMM:  56    -0.624159637224E+03    0.44335E+00   -0.22811E-01  8800   0.641E-01    0.104E+01
RMM:  57    -0.623652342339E+03    0.50729E+00   -0.26267E-01  8800   0.708E-01    0.104E+01
RMM:  58    -0.624195042920E+03   -0.54270E+00   -0.21905E-01  8800   0.720E-01    0.947E+00
RMM:  59    -0.624151696813E+03    0.43346E-01   -0.15402E-01  8800   0.580E-01    0.833E+00
RMM:  60    -0.624196332467E+03   -0.44636E-01   -0.91704E-02  8804   0.422E-01
   2 F= -.62419633E+03 E0= -.62416428E+03  d E =-.641048E-01  mag=     2.3830
       N       E                     dE             d eps       ncg     rms          rms(c)
DAV:   1    -0.624414692653E+03   -0.26300E+00   -0.46478E+00  9400   0.308E+00    0.717E+00
RMM:   2    -0.624545893290E+03   -0.13120E+00   -0.12177E-01  8800   0.544E-01    0.701E+00
RMM:   3    -0.624791498125E+03   -0.24560E+00   -0.39418E-01  8800   0.692E-01    0.697E+00
RMM:   4    -0.624944412306E+03   -0.15291E+00   -0.47591E-02  8993   0.300E-01    0.747E+00
RMM:   5    -0.624995075675E+03   -0.50663E-01   -0.54987E-02  8801   0.348E-01    0.718E+00
RMM:   6    -0.624962445127E+03    0.32631E-01   -0.23441E-02  8816   0.211E-01    0.693E+00
RMM:   7    -0.624955498532E+03    0.69466E-02   -0.26561E-03  9292   0.852E-02    0.688E+00
RMM:   8    -0.624702947434E+03    0.25255E+00   -0.45910E-01  8800   0.902E-01    0.689E+00
RMM:   9    -0.624949677815E+03   -0.24673E+00   -0.11242E-01  8800   0.506E-01    0.638E+00
RMM:  10    -0.624952938205E+03   -0.32604E-02   -0.32137E-02  8800   0.274E-01    0.619E+00
RMM:  11    -0.625369987772E+03   -0.41705E+00   -0.11413E-01  8800   0.440E-01    0.102E+01
RMM:  12    -0.625445615051E+03   -0.75627E-01   -0.24042E-02  8803   0.291E-01    0.104E+01
RMM:  13    -0.625139289047E+03    0.30633E+00   -0.11227E-01  8800   0.472E-01    0.712E+00
RMM:  14    -0.624997770598E+03    0.14152E+00   -0.11728E-01  8800   0.478E-01    0.598E+00
RMM:  15    -0.624959598569E+03    0.38172E-01   -0.13346E-01  8803   0.502E-01    0.631E+00
RMM:  16    -0.624971404606E+03   -0.11806E-01   -0.11708E-02  9520   0.179E-01    0.632E+00
RMM:  17    -0.624966685175E+03    0.47194E-02   -0.98542E-04  9202   0.547E-02    0.623E+00
RMM:  18    -0.624953372300E+03    0.13313E-01   -0.23174E-02  8800   0.212E-01    0.622E+00
RMM:  19    -0.624959837305E+03   -0.64650E-02   -0.12710E-03  9206   0.589E-02    0.615E+00
RMM:  20    -0.625061888439E+03   -0.10205E+00   -0.48755E-03  8801   0.755E-02    0.686E+00
RMM:  21    -0.625140031189E+03   -0.78143E-01   -0.63099E-03  8808   0.135E-01    0.737E+00
RMM:  22    -0.625092169518E+03    0.47862E-01   -0.10320E-02  8801   0.159E-01    0.710E+00
RMM:  23    -0.625020032696E+03    0.72137E-01   -0.73753E-01  8800   0.118E+00    0.113E+01
RMM:  24    -0.624567219941E+03    0.45281E+00   -0.79717E-02  8812   0.405E-01    0.997E+00
RMM:  25    -0.624300220990E+03    0.26700E+00   -0.26436E-02  8804   0.236E-01    0.871E+00
RMM:  26    -0.624965478305E+03   -0.66526E+00   -0.92528E-02  8800   0.408E-01    0.969E+00
RMM:  27    -0.625162319997E+03   -0.19684E+00   -0.24283E-02  8804   0.211E-01    0.996E+00
RMM:  28    -0.625702930599E+03   -0.54061E+00   -0.27163E-02  8809   0.235E-01    0.123E+01
RMM:  29    -0.626162916107E+03   -0.45999E+00   -0.44461E-02  8806   0.286E-01    0.136E+01
RMM:  30    -0.626183543258E+03   -0.20627E-01   -0.37625E-03  9216   0.104E-01    0.137E+01
RMM:  31    -0.626195095348E+03   -0.11552E-01   -0.48819E-04  9252   0.374E-02    0.138E+01
RMM:  32    -0.625909949657E+03    0.28515E+00   -0.13680E-02  8800   0.170E-01    0.124E+01
RMM:  33    -0.625910947018E+03   -0.99736E-03   -0.26682E-01  8800   0.717E-01    0.111E+01
RMM:  34    -0.625647035045E+03    0.26391E+00   -0.73003E-02  8803   0.403E-01    0.104E+01
RMM:  35    -0.625815243118E+03   -0.16821E+00   -0.50942E-03  8828   0.121E-01    0.113E+01
RMM:  36    -0.626006203950E+03   -0.19096E+00   -0.51683E-03  8807   0.101E-01    0.122E+01
RMM:  37    -0.625567643611E+03    0.43856E+00   -0.35033E-02  8800   0.263E-01    0.960E+00
RMM:  38    -0.624951753926E+03    0.61589E+00   -0.10726E+00  8800   0.134E+00    0.780E+00
RMM:  39    -0.624829272310E+03    0.12248E+00   -0.10242E-01  8911   0.401E-01    0.738E+00
RMM:  40    -0.624761844553E+03    0.67428E-01   -0.18149E-02  9252   0.165E-01    0.718E+00
RMM:  41    -0.624761507681E+03    0.33687E-03   -0.42010E-03  9229   0.716E-02    0.739E+00
RMM:  42    -0.625004305881E+03   -0.24280E+00   -0.39192E-03  8805   0.691E-02    0.932E+00
RMM:  43    -0.625471198959E+03   -0.46689E+00   -0.24210E-02  8801   0.218E-01    0.121E+01
RMM:  44    -0.625388150448E+03    0.83049E-01   -0.15271E-02  8800   0.204E-01    0.110E+01
RMM:  45    -0.625095189340E+03    0.29296E+00   -0.24292E-02  8800   0.214E-01    0.835E+00
RMM:  46    -0.624890653207E+03    0.20454E+00   -0.10138E-02  8821   0.146E-01    0.653E+00
RMM:  47    -0.624718210756E+03    0.17244E+00   -0.31036E-02  8831   0.212E-01    0.581E+00
RMM:  48    -0.625754090576E+03   -0.10359E+01   -0.14931E-01  8814   0.517E-01    0.100E+01
RMM:  49    -0.625433444901E+03    0.32065E+00   -0.12298E-01  8800   0.546E-01    0.680E+00
RMM:  50    -0.625406599429E+03    0.26845E-01   -0.51860E-02  8801   0.293E-01    0.568E+00
RMM:  51    -0.625799612894E+03   -0.39301E+00   -0.45534E-02  8801   0.298E-01    0.789E+00
RMM:  52    -0.626165640352E+03   -0.36603E+00   -0.46431E-02  8812   0.294E-01    0.940E+00
RMM:  53    -0.625803300712E+03    0.36234E+00   -0.40261E-02  8800   0.264E-01    0.679E+00
RMM:  54    -0.625744422647E+03    0.58878E-01   -0.14875E-02  8814   0.183E-01    0.601E+00
RMM:  55    -0.625922079159E+03   -0.17766E+00   -0.29414E-02  8800   0.261E-01    0.662E+00
RMM:  56    -0.626021257467E+03   -0.99178E-01   -0.12443E-02  8828   0.157E-01    0.695E+00
RMM:  57    -0.626085357790E+03   -0.64100E-01   -0.78892E-03  8833   0.119E-01    0.724E+00
RMM:  58    -0.626066258785E+03    0.19099E-01   -0.26369E-03  8877   0.715E-02    0.722E+00
RMM:  59    -0.626089582685E+03   -0.23324E-01   -0.27144E-03  8816   0.718E-02    0.735E+00
RMM:  60    -0.626095150466E+03   -0.55678E-02   -0.26269E-04  8988   0.303E-02
   3 F= -.62609515E+03 E0= -.62606331E+03  d E =-.636849E-01  mag=     1.2561
       N       E                     dE             d eps       ncg     rms          rms(c)
DAV:   1    -0.626093067902E+03   -0.34852E-02   -0.23918E+00  9280   0.216E+00    0.736E+00
RMM:   2    -0.625976022733E+03    0.11705E+00   -0.23739E-02  8800   0.251E-01    0.672E+00
RMM:   3    -0.626005879025E+03   -0.29856E-01   -0.33996E-03  8800   0.101E-01    0.691E+00
RMM:   4    -0.626133831907E+03   -0.12795E+00   -0.49235E-03  8800   0.991E-02    0.766E+00
RMM:   5    -0.626208774286E+03   -0.74942E-01   -0.41117E-03  8800   0.103E-01    0.806E+00
RMM:   6    -0.626188542447E+03    0.20232E-01   -0.51077E-04  8804   0.471E-02    0.797E+00
RMM:   7    -0.626208114267E+03   -0.19572E-01   -0.14065E-04  8837   0.206E-02    0.808E+00
RMM:   8    -0.626205937666E+03    0.21766E-02   -0.18889E-05  8280   0.852E-03    0.807E+00
RMM:   9    -0.626312531020E+03   -0.10659E+00   -0.98321E-03  8800   0.145E-01    0.870E+00
RMM:  10    -0.626219063979E+03    0.93467E-01   -0.59149E-03  8800   0.119E-01    0.821E+00
RMM:  11    -0.626222212662E+03   -0.31487E-02   -0.37123E-04  8807   0.398E-02    0.818E+00
RMM:  12    -0.626228202426E+03   -0.59898E-02   -0.56007E-05  8979   0.128E-02    0.820E+00
RMM:  13    -0.626205256917E+03    0.22946E-01   -0.10594E-03  8800   0.494E-02    0.816E+00
RMM:  14    -0.626178268823E+03    0.26988E-01   -0.18696E-02  8800   0.213E-01    0.805E+00
RMM:  15    -0.626164906092E+03    0.13363E-01   -0.11042E-02  8800   0.162E-01    0.794E+00
RMM:  16    -0.626197435099E+03   -0.32529E-01   -0.52214E-03  8819   0.995E-02    0.803E+00
RMM:  17    -0.626190520084E+03    0.69150E-02   -0.65084E-03  8804   0.115E-01    0.788E+00
RMM:  18    -0.626186717467E+03    0.38026E-02   -0.10781E-02  8805   0.149E-01    0.766E+00
RMM:  19    -0.626097056056E+03    0.89661E-01   -0.27777E-02  8800   0.247E-01    0.749E+00
RMM:  20    -0.626062829115E+03    0.34227E-01   -0.85067E-03  8800   0.145E-01    0.711E+00
RMM:  21    -0.625953676570E+03    0.10915E+00   -0.84398E-03  8829   0.124E-01    0.622E+00
RMM:  22    -0.625930591976E+03    0.23085E-01   -0.23193E-03  8933   0.806E-02    0.595E+00
RMM:  23    -0.626072910874E+03   -0.14232E+00   -0.28299E-03  8800   0.689E-02    0.685E+00
RMM:  24    -0.625893713483E+03    0.17920E+00   -0.78251E-03  8800   0.119E-01    0.543E+00
RMM:  25    -0.625853643624E+03    0.40070E-01   -0.22169E-03  8962   0.838E-02    0.500E+00
RMM:  26    -0.625846421776E+03    0.72218E-02   -0.56210E-04  8864   0.489E-02    0.490E+00
RMM:  27    -0.625860442376E+03   -0.14021E-01   -0.21139E-04  8802   0.269E-02    0.498E+00
RMM:  28    -0.625912935271E+03   -0.52493E-01   -0.14674E-03  8800   0.531E-02    0.533E+00
RMM:  29    -0.626525091175E+03   -0.61216E+00   -0.42382E-01  8800   0.896E-01    0.105E+01
RMM:  30    -0.626758583805E+03   -0.23349E+00   -0.40787E-02  8869   0.375E-01    0.115E+01
RMM:  31    -0.626652396104E+03    0.10619E+00   -0.19221E-02  8809   0.215E-01    0.107E+01
RMM:  32    -0.626544459351E+03    0.10794E+00   -0.34121E-02  8800   0.273E-01    0.969E+00
RMM:  33    -0.626499459544E+03    0.45000E-01   -0.23199E-02  8801   0.225E-01    0.911E+00
RMM:  34    -0.626257239652E+03    0.24222E+00   -0.12194E-01  8800   0.497E-01    0.699E+00
RMM:  35    -0.626158287143E+03    0.98953E-01   -0.12101E-02  8878   0.207E-01    0.619E+00
RMM:  36    -0.626104047974E+03    0.54239E-01   -0.44530E-03  8857   0.109E-01    0.569E+00
RMM:  37    -0.625989494457E+03    0.11455E+00   -0.87517E-03  8801   0.134E-01    0.469E+00
RMM:  38    -0.625984467669E+03    0.50268E-02   -0.21969E-03  8820   0.919E-02    0.460E+00
RMM:  39    -0.625910694677E+03    0.73773E-01   -0.74442E-03  8810   0.109E-01    0.365E+00
RMM:  40    -0.625923051149E+03   -0.12356E-01   -0.19419E-03  8800   0.914E-02    0.390E+00
RMM:  41    -0.625918304120E+03    0.47470E-02   -0.14600E-03  8800   0.547E-02    0.385E+00
RMM:  42    -0.625913286676E+03    0.50174E-02   -0.59219E-04  8844   0.352E-02    0.383E+00
RMM:  43    -0.625910153437E+03    0.31332E-02   -0.14954E-04  9343   0.162E-02    0.382E+00
RMM:  44    -0.626020488658E+03   -0.11034E+00   -0.59746E-01  8800   0.111E+00    0.104E+01
RMM:  45    -0.625872243878E+03    0.14824E+00   -0.42026E-02  8804   0.460E-01    0.668E+00
RMM:  46    -0.625878325233E+03   -0.60814E-02   -0.31426E-03  9315   0.897E-02    0.679E+00
RMM:  47    -0.625861807153E+03    0.16518E-01   -0.50833E-03  8800   0.108E-01    0.613E+00
RMM:  48    -0.625915293656E+03   -0.53487E-01   -0.17509E-02  8800   0.198E-01    0.591E+00
RMM:  49    -0.625962802678E+03   -0.47509E-01   -0.19482E-02  8800   0.205E-01    0.571E+00
RMM:  50    -0.626055090226E+03   -0.92288E-01   -0.71839E-03  8816   0.128E-01    0.642E+00
RMM:  51    -0.626048107273E+03    0.69830E-02   -0.78357E-04  9264   0.514E-02    0.634E+00
RMM:  52    -0.626020198521E+03    0.27909E-01   -0.40532E-03  8800   0.836E-02    0.614E+00
RMM:  53    -0.626015672745E+03    0.45258E-02   -0.24751E-04  8894   0.297E-02    0.608E+00
RMM:  54    -0.625963925054E+03    0.51748E-01   -0.32682E-03  8801   0.818E-02    0.560E+00
RMM:  55    -0.625993142747E+03   -0.29218E-01   -0.14683E-03  8800   0.590E-02    0.597E+00
RMM:  56    -0.625996030259E+03   -0.28875E-02   -0.16162E-03  8800   0.516E-02    0.617E+00
RMM:  57    -0.626005712324E+03   -0.96821E-02   -0.23995E-04  8803   0.230E-02    0.619E+00
RMM:  58    -0.626091669508E+03   -0.85957E-01   -0.43203E-03  8800   0.806E-02    0.740E+00
RMM:  59    -0.626062553698E+03    0.29116E-01   -0.29044E-03  8800   0.879E-02    0.718E+00
RMM:  60    -0.626101900260E+03   -0.39347E-01   -0.13993E-03  8800   0.532E-02
   4 F= -.62610190E+03 E0= -.62606689E+03  d E =-.700275E-01  mag=    -2.7868
       N       E                     dE             d eps       ncg     rms          rms(c)
DAV:   1    -0.626096280882E+03   -0.33727E-01   -0.47837E+00  9400   0.293E+00    0.758E+00
RMM:   2    -0.626123631270E+03   -0.27350E-01   -0.24751E-02  8800   0.262E-01    0.788E+00
RMM:   3    -0.626009003362E+03    0.11463E+00   -0.85296E-03  8811   0.130E-01    0.647E+00
RMM:   4    -0.626050950638E+03   -0.41947E-01   -0.12187E-03  8801   0.650E-02    0.691E+00
RMM:   5    -0.625943252627E+03    0.10770E+00   -0.17391E-02  8800   0.183E-01    0.589E+00
RMM:   6    -0.625900853014E+03    0.42400E-01   -0.40332E-03  8803   0.939E-02    0.528E+00
RMM:   7    -0.625827020960E+03    0.73832E-01   -0.90441E-03  8801   0.138E-01    0.439E+00
RMM:   8    -0.625788015956E+03    0.39005E-01   -0.80148E-03  8803   0.130E-01    0.357E+00
RMM:   9    -0.625815238624E+03   -0.27223E-01   -0.15904E-02  8800   0.166E-01    0.178E+00
RMM:  10    -0.625838264761E+03   -0.23026E-01   -0.87505E-03  8814   0.132E-01    0.121E+00
RMM:  11    -0.625856927097E+03   -0.18662E-01   -0.35042E-03  8888   0.895E-02    0.116E+00
RMM:  12    -0.625870924741E+03   -0.13998E-01   -0.26239E-03  8813   0.711E-02    0.113E+00
RMM:  13    -0.625891938261E+03   -0.21014E-01   -0.57476E-03  8805   0.104E-01    0.121E+00
RMM:  14    -0.625909208702E+03   -0.17270E-01   -0.90836E-03  8818   0.130E-01    0.146E+00
RMM:  15    -0.625903963865E+03    0.52448E-02   -0.23466E-03  8824   0.818E-02    0.100E+00
RMM:  16    -0.625903222540E+03    0.74132E-03   -0.11538E-03  8855   0.529E-02    0.926E-01
RMM:  17    -0.625900382542E+03    0.28400E-02   -0.12834E-03  8807   0.479E-02    0.807E-01
RMM:  18    -0.625897459754E+03    0.29228E-02   -0.12826E-03  8823   0.477E-02    0.871E-01
RMM:  19    -0.625894958514E+03    0.25012E-02   -0.75877E-04  8823   0.392E-02    0.968E-01
RMM:  20    -0.625882225092E+03    0.12733E-01   -0.29462E-03  8800   0.723E-02    0.108E+00
RMM:  21    -0.625878264622E+03    0.39605E-02   -0.78916E-04  8851   0.399E-02    0.683E-01
RMM:  22    -0.625871303832E+03    0.69608E-02   -0.76986E-04  8802   0.407E-02    0.613E-01
RMM:  23    -0.625864488049E+03    0.68158E-02   -0.68649E-04  8801   0.381E-02    0.639E-01
RMM:  24    -0.625866326319E+03   -0.18383E-02   -0.19883E-03  8800   0.606E-02    0.688E-01
RMM:  25    -0.625874399857E+03   -0.80735E-02   -0.38623E-03  8800   0.827E-02    0.760E-01
RMM:  26    -0.625880411759E+03   -0.60119E-02   -0.10553E-03  8800   0.466E-02    0.767E-01
RMM:  27    -0.625887881012E+03   -0.74693E-02   -0.11045E-03  8800   0.429E-02    0.686E-01
RMM:  28    -0.625891307623E+03   -0.34266E-02   -0.29726E-03  8800   0.725E-02    0.792E-01
RMM:  29    -0.625891219410E+03    0.88213E-04   -0.59668E-04  8838   0.347E-02    0.831E-01
RMM:  30    -0.625888671372E+03    0.25480E-02   -0.93683E-04  8800   0.423E-02    0.731E-01
RMM:  31    -0.625890846610E+03   -0.21752E-02   -0.50275E-05  8707   0.138E-02    0.759E-01
RMM:  32    -0.625893870254E+03   -0.30236E-02   -0.77771E-05  8772   0.121E-02    0.734E-01
RMM:  33    -0.625905289265E+03   -0.11419E-01   -0.10974E-03  8800   0.413E-02    0.102E+00
RMM:  34    -0.625912234082E+03   -0.69448E-02   -0.97684E-04  8802   0.460E-02    0.112E+00
RMM:  35    -0.625916426796E+03   -0.41927E-02   -0.12912E-03  8803   0.489E-02    0.110E+00
RMM:  36    -0.625916624314E+03   -0.19752E-03   -0.10930E-03  8800   0.452E-02    0.923E-01
RMM:  37    -0.625921122472E+03   -0.44982E-02   -0.39671E-03  8800   0.829E-02    0.732E-01
RMM:  38    -0.625926897111E+03   -0.57746E-02   -0.24655E-03  8803   0.666E-02    0.916E-01
RMM:  39    -0.625926978441E+03   -0.81329E-04   -0.35468E-04  9194   0.255E-02    0.916E-01
RMM:  40    -0.625927981367E+03   -0.10029E-02   -0.38979E-04  8800   0.266E-02    0.123E+00
RMM:  41    -0.625927906114E+03    0.75253E-04   -0.39312E-05  8371   0.130E-02    0.123E+00
RMM:  42    -0.625927805796E+03    0.10032E-03   -0.11319E-05  7710   0.538E-03    0.122E+00
RMM:  43    -0.625927580810E+03    0.22499E-03   -0.55950E-06  6607   0.333E-03    0.120E+00
RMM:  44    -0.625928485313E+03   -0.90450E-03   -0.20812E-04  8797   0.194E-02    0.117E+00
RMM:  45    -0.625929850942E+03   -0.13656E-02   -0.11539E-03  8800   0.460E-02    0.111E+00
RMM:  46    -0.625929883632E+03   -0.32689E-04   -0.63563E-04  8809   0.342E-02    0.100E+00
RMM:  47    -0.625930955473E+03   -0.10718E-02   -0.24641E-04  8922   0.210E-02    0.102E+00
RMM:  48    -0.625930174376E+03    0.78110E-03   -0.79308E-05  8845   0.126E-02    0.903E-01
RMM:  49    -0.625929652427E+03    0.52195E-03   -0.37824E-04  8800   0.267E-02    0.723E-01
RMM:  50    -0.625927607899E+03    0.20445E-02   -0.22649E-03  8800   0.650E-02    0.382E-01
RMM:  51    -0.625928342416E+03   -0.73452E-03   -0.57794E-04  8808   0.368E-02    0.505E-01
RMM:  52    -0.625929258430E+03   -0.91601E-03   -0.42755E-04  8812   0.276E-02    0.564E-01
RMM:  53    -0.625929811156E+03   -0.55273E-03   -0.12355E-03  8800   0.467E-02    0.424E-01
RMM:  54    -0.625930099825E+03   -0.28867E-03   -0.78421E-04  8800   0.370E-02    0.148E-01
RMM:  55    -0.625930038745E+03    0.61080E-04   -0.16440E-03  8800   0.560E-02    0.327E-01
RMM:  56    -0.625930664975E+03   -0.62623E-03   -0.14748E-04  8801   0.187E-02    0.242E-01
RMM:  57    -0.625931315872E+03   -0.65090E-03   -0.19420E-04  8811   0.176E-02    0.171E-01
RMM:  58    -0.625931493811E+03   -0.17794E-03   -0.40463E-05  8669   0.100E-02    0.121E-01
RMM:  59    -0.625931777395E+03   -0.28358E-03   -0.19129E-05  8112   0.636E-03    0.151E-01
RMM:  60    -0.625931980951E+03   -0.20356E-03   -0.95153E-06  7213   0.396E-03
   5 F= -.62593198E+03 E0= -.62589267E+03  d E =-.786228E-01  mag=    -1.3522
       N       E                     dE             d eps       ncg     rms          rms(c)
DAV:   1    -0.625928671920E+03    0.31055E-02   -0.24398E+00  9560   0.213E+00    0.440E-01
RMM:   2    -0.625927463150E+03    0.12088E-02   -0.20431E-02  8800   0.220E-01    0.808E-01
RMM:   3    -0.625927915350E+03   -0.45220E-03   -0.21239E-03  8883   0.720E-02    0.618E-01
RMM:   4    -0.625927241168E+03    0.67418E-03   -0.54965E-03  8800   0.106E-01    0.550E-01
RMM:   5    -0.625926546080E+03    0.69509E-03   -0.35715E-03  8800   0.832E-02    0.999E-01
RMM:   6    -0.625923028686E+03    0.35174E-02   -0.31727E-03  8800   0.834E-02    0.581E-01
RMM:   7    -0.625925149158E+03   -0.21205E-02   -0.20496E-03  8800   0.675E-02    0.663E-01
RMM:   8    -0.625926048507E+03   -0.89935E-03   -0.16545E-04  8817   0.225E-02    0.584E-01
RMM:   9    -0.625927511184E+03   -0.14627E-02   -0.36056E-04  8800   0.261E-02    0.535E-01
RMM:  10    -0.625928026998E+03   -0.51581E-03   -0.12792E-04  8798   0.163E-02    0.584E-01
RMM:  11    -0.625928707060E+03   -0.68006E-03   -0.16870E-04  8793   0.174E-02    0.683E-01
RMM:  12    -0.625928703998E+03    0.30619E-05   -0.13506E-05  7517   0.643E-03    0.683E-01
RMM:  13    -0.625928546182E+03    0.15782E-03   -0.15159E-05  8033   0.571E-03    0.641E-01
RMM:  14    -0.625928884916E+03   -0.33873E-03   -0.20841E-05  8155   0.618E-03    0.634E-01
RMM:  15    -0.625929536111E+03   -0.65120E-03   -0.41200E-05  8694   0.988E-03    0.724E-01
RMM:  16    -0.625928651405E+03    0.88471E-03   -0.21901E-04  8792   0.202E-02    0.631E-01
RMM:  17    -0.625929113891E+03   -0.46249E-03   -0.60379E-05  8761   0.114E-02    0.634E-01
RMM:  18    -0.625929118196E+03   -0.43046E-05   -0.26252E-05  8421   0.704E-03    0.609E-01
RMM:  19    -0.625929048438E+03    0.69757E-04   -0.64447E-05  8707   0.115E-02    0.525E-01
RMM:  20    -0.625928804212E+03    0.24423E-03   -0.11519E-04  8746   0.147E-02    0.437E-01
RMM:  21    -0.625929068365E+03   -0.26415E-03   -0.15338E-04  8743   0.171E-02    0.431E-01
RMM:  22    -0.625929372386E+03   -0.30402E-03   -0.41420E-05  8546   0.898E-03    0.422E-01
RMM:  23    -0.625929169687E+03    0.20270E-03   -0.26641E-05  8341   0.694E-03    0.349E-01
RMM:  24    -0.625929062948E+03    0.10674E-03   -0.55967E-05  8516   0.103E-02    0.313E-01
RMM:  25    -0.625928879442E+03    0.18351E-03   -0.35183E-05  8403   0.825E-03    0.280E-01
RMM:  26    -0.625928363884E+03    0.51556E-03   -0.35228E-05  8342   0.758E-03    0.230E-01
RMM:  27    -0.625928388829E+03   -0.24945E-04   -0.22207E-05  8246   0.694E-03    0.222E-01
RMM:  28    -0.625928466330E+03   -0.77501E-04   -0.28862E-05  8357   0.757E-03    0.214E-01
RMM:  29    -0.625928468904E+03   -0.25743E-05   -0.42083E-05  8477   0.923E-03    0.165E-01
RMM:  30    -0.625928530891E+03   -0.61986E-04   -0.14557E-05  7869   0.560E-03    0.116E-01
RMM:  31    -0.625929007633E+03   -0.47674E-03   -0.16810E-04  8777   0.167E-02    0.101E-01
RMM:  32    -0.625929067298E+03   -0.59665E-04   -0.16735E-05  7880   0.667E-03    0.954E-02
RMM:  33    -0.625929078879E+03   -0.11581E-04   -0.61768E-06  6467   0.278E-03    0.974E-02
RMM:  34    -0.625929083552E+03   -0.46733E-05   -0.40351E-07  5173   0.136E-03    0.975E-02
RMM:  35    -0.625929081024E+03    0.25282E-05   -0.14332E-07  4528   0.627E-04    0.974E-02
RMM:  36    -0.625929149798E+03   -0.68774E-04   -0.12492E-04  8784   0.162E-02    0.113E-01
RMM:  37    -0.625929160249E+03   -0.10451E-04   -0.71350E-06  7318   0.601E-03    0.101E-01
RMM:  38    -0.625929165422E+03   -0.51725E-05   -0.15628E-06  5363   0.219E-03    0.100E-01
RMM:  39    -0.625929150892E+03    0.14530E-04   -0.46134E-06  6352   0.317E-03    0.100E-01
RMM:  40    -0.625929201853E+03   -0.50961E-04   -0.47627E-06  6426   0.332E-03    0.101E-01
RMM:  41    -0.625929249464E+03   -0.47611E-04   -0.17420E-04  8771   0.175E-02    0.107E-01
RMM:  42    -0.625929116947E+03    0.13252E-03   -0.93880E-05  8701   0.136E-02    0.859E-02
RMM:  43    -0.625929043174E+03    0.73773E-04   -0.12709E-04  8742   0.155E-02    0.784E-02
RMM:  44    -0.625929021487E+03    0.21688E-04   -0.84746E-05  8642   0.130E-02    0.672E-02
RMM:  45    -0.625929097946E+03   -0.76459E-04   -0.20391E-04  8790   0.199E-02    0.676E-02
RMM:  46    -0.625928911839E+03    0.18611E-03   -0.33284E-04  8800   0.258E-02    0.624E-02
RMM:  47    -0.625929083810E+03   -0.17197E-03   -0.25686E-05  8394   0.982E-03    0.463E-02
RMM:  48    -0.625929218170E+03   -0.13436E-03   -0.65167E-06  7079   0.415E-03    0.402E-02
RMM:  49    -0.625929517915E+03   -0.29974E-03   -0.17148E-05  7859   0.529E-03    0.373E-02
RMM:  50    -0.625929497152E+03    0.20763E-04   -0.47623E-06  6513   0.320E-03    0.142E-02
RMM:  51    -0.625929593665E+03   -0.96513E-04   -0.11280E-05  7712   0.507E-03    0.119E-02
RMM:  52    -0.625929638169E+03   -0.44503E-04   -0.35498E-06  5959   0.278E-03    0.111E-02
RMM:  53    -0.625929691054E+03   -0.52885E-04   -0.47079E-06  6508   0.293E-03    0.973E-03
RMM:  54    -0.625929755012E+03   -0.63958E-04   -0.19765E-06  5587   0.181E-03    0.898E-03
RMM:  55    -0.625929803826E+03   -0.48814E-04   -0.20374E-06  5623   0.192E-03    0.556E-03
RMM:  56    -0.625929836479E+03   -0.32653E-04   -0.11089E-06  5279   0.141E-03    0.866E-03
RMM:  57    -0.625929860772E+03   -0.24294E-04   -0.98731E-07  5265   0.116E-03    0.737E-03
RMM:  58    -0.625929881909E+03   -0.21137E-04   -0.10499E-06  5248   0.111E-03    0.499E-03
RMM:  59    -0.625929890080E+03   -0.81703E-05   -0.11172E-06  5297   0.152E-03    0.461E-03
RMM:  60    -0.625929892303E+03   -0.22237E-05   -0.68226E-07  4964   0.116E-03
   6 F= -.62592989E+03 E0= -.62589068E+03  d E =-.784237E-01  mag=    -1.1892
       N       E                     dE             d eps       ncg     rms          rms(c)
DAV:   1    -0.625929836485E+03    0.53594E-04   -0.48743E+00  8800   0.297E+00    0.842E-01
RMM:   2    -0.625915477123E+03    0.14359E-01   -0.99287E-02  8800   0.472E-01    0.164E+00
RMM:   3    -0.625906547538E+03    0.89296E-02   -0.23295E-02  8804   0.223E-01    0.208E+00
RMM:   4    -0.625889147570E+03    0.17400E-01   -0.10345E-01  8800   0.496E-01    0.245E+00
RMM:   5    -0.625923595795E+03   -0.34448E-01   -0.16499E-02  8800   0.235E-01    0.196E+00
RMM:   6    -0.625927238617E+03   -0.36428E-02   -0.13739E-02  8800   0.172E-01    0.132E+00
RMM:   7    -0.625927595649E+03   -0.35703E-03   -0.46133E-03  8800   0.107E-01    0.105E+00
RMM:   8    -0.625928663707E+03   -0.10681E-02   -0.44491E-03  8801   0.995E-02    0.570E-01
RMM:   9    -0.625929563334E+03   -0.89963E-03   -0.91636E-04  8810   0.472E-02    0.303E-01
RMM:  10    -0.625929759597E+03   -0.19626E-03   -0.81685E-04  8828   0.360E-02    0.308E-01
RMM:  11    -0.625930410756E+03   -0.65116E-03   -0.42218E-04  8800   0.345E-02    0.285E-01
RMM:  12    -0.625930048324E+03    0.36243E-03   -0.69915E-04  8800   0.363E-02    0.121E-01
RMM:  13    -0.625930340815E+03   -0.29249E-03   -0.32261E-04  8800   0.305E-02    0.486E-02
RMM:  14    -0.625930464760E+03   -0.12395E-03   -0.41232E-04  8800   0.290E-02    0.664E-02
RMM:  15    -0.625930381377E+03    0.83383E-04   -0.10211E-04  8759   0.152E-02    0.415E-02
RMM:  16    -0.625930503616E+03   -0.12224E-03   -0.16175E-05  8228   0.683E-03    0.415E-02
RMM:  17    -0.625930574929E+03   -0.71313E-04   -0.67975E-06  7070   0.405E-03    0.454E-02
RMM:  18    -0.625930553752E+03    0.21177E-04   -0.42345E-06  6396   0.318E-03    0.334E-02
RMM:  19    -0.625930530006E+03    0.23746E-04   -0.20557E-06  5508   0.222E-03    0.153E-02
RMM:  20    -0.625930542986E+03   -0.12980E-04   -0.99217E-07  5299   0.169E-03    0.148E-02
RMM:  21    -0.625930534959E+03    0.80266E-05   -0.70516E-07  5173   0.129E-03    0.907E-03
RMM:  22    -0.625930543169E+03   -0.82096E-05   -0.90787E-07  5214   0.143E-03    0.440E-03
RMM:  23    -0.625930551064E+03   -0.78949E-05   -0.45330E-07  4942   0.994E-04    0.407E-03
RMM:  24    -0.625930564109E+03   -0.13045E-04   -0.35097E-07  4791   0.891E-04    0.447E-03
RMM:  25    -0.625930575980E+03   -0.11872E-04   -0.31517E-07  4768   0.779E-04    0.367E-03
RMM:  26    -0.625930592254E+03   -0.16274E-04   -0.21560E-07  4352   0.660E-04    0.222E-03
RMM:  27    -0.625930610819E+03   -0.18565E-04   -0.24557E-07  4470   0.632E-04    0.176E-03
RMM:  28    -0.625930619475E+03   -0.86561E-05   -0.10947E-07  3460   0.546E-04    0.122E-03
RMM:  29    -0.625930629737E+03   -0.10262E-04   -0.96842E-08  2680   0.416E-04    0.109E-03
RMM:  30    -0.625930636717E+03   -0.69799E-05   -0.10679E-07  3426   0.465E-04    0.163E-03
RMM:  31    -0.625930639446E+03   -0.27291E-05   -0.55809E-08  2631   0.404E-04    0.213E-03
RMM:  32    -0.625930641238E+03   -0.17916E-05   -0.43516E-08  2291   0.362E-04    0.141E-03
RMM:  33    -0.625930641977E+03   -0.73996E-06   -0.45953E-08  2654   0.381E-04
   7 F= -.62593064E+03 E0= -.62589167E+03  d E =-.779501E-01  mag=    -1.1491
       N       E                     dE             d eps       ncg     rms          rms(c)
DAV:   1    -0.625932746925E+03   -0.21057E-02   -0.23379E+00  8880   0.210E+00    0.537E-01
RMM:   2    -0.625928327832E+03    0.44191E-02   -0.30597E-02  8800   0.267E-01    0.661E-01
RMM:   3    -0.625931950551E+03   -0.36227E-02   -0.35456E-03  8896   0.975E-02    0.353E-01
RMM:   4    -0.625932080344E+03   -0.12979E-03   -0.21518E-03  8807   0.650E-02    0.393E-01
RMM:   5    -0.625929183611E+03    0.28967E-02   -0.56151E-04  8800   0.385E-02    0.133E-01
RMM:   6    -0.625931565723E+03   -0.23821E-02   -0.39965E-04  8800   0.288E-02    0.251E-01
RMM:   7    -0.625931715581E+03   -0.14986E-03   -0.19397E-04  8801   0.222E-02    0.104E-01
RMM:   8    -0.625932496292E+03   -0.78071E-03   -0.69260E-05  8737   0.114E-02    0.561E-02
RMM:   9    -0.625932471171E+03    0.25121E-04   -0.81707E-05  8786   0.131E-02    0.335E-02
RMM:  10    -0.625932630936E+03   -0.15976E-03   -0.21418E-05  8196   0.665E-03    0.400E-02
RMM:  11    -0.625932642665E+03   -0.11730E-04   -0.38674E-06  6298   0.369E-03    0.181E-02
RMM:  12    -0.625932607129E+03    0.35536E-04   -0.27700E-06  5796   0.258E-03    0.870E-03
RMM:  13    -0.625932603116E+03    0.40139E-05   -0.81439E-07  5247   0.156E-03    0.828E-03
RMM:  14    -0.625932609792E+03   -0.66763E-05   -0.99541E-07  5232   0.156E-03    0.785E-03
RMM:  15    -0.625932612598E+03   -0.28065E-05   -0.50698E-07  5043   0.114E-03    0.744E-03
RMM:  16    -0.625932625377E+03   -0.12778E-04   -0.20651E-07  4692   0.830E-04    0.480E-03
RMM:  17    -0.625932642530E+03   -0.17153E-04   -0.31211E-07  4504   0.685E-04    0.224E-03
RMM:  18    -0.625932652199E+03   -0.96690E-05   -0.25757E-07  4690   0.746E-04    0.182E-03
RMM:  19    -0.625932661267E+03   -0.90682E-05   -0.11055E-07  3432   0.533E-04    0.112E-03
RMM:  20    -0.625932664828E+03   -0.35613E-05   -0.99775E-08  3389   0.474E-04    0.116E-03
RMM:  21    -0.625932669555E+03   -0.47261E-05   -0.89375E-08  2934   0.429E-04    0.106E-03
RMM:  22    -0.625932673617E+03   -0.40620E-05   -0.64944E-08  2548   0.399E-04    0.125E-03
RMM:  23    -0.625932674656E+03   -0.10397E-05   -0.54910E-08  2445   0.387E-04    0.126E-03
RMM:  24    -0.625932676088E+03   -0.14317E-05   -0.33496E-08  1975   0.355E-04    0.106E-03
RMM:  25    -0.625932677853E+03   -0.17645E-05   -0.41649E-08  2454   0.360E-04    0.515E-04
RMM:  26    -0.625932679668E+03   -0.18150E-05   -0.24514E-08  2031   0.338E-04    0.557E-04
RMM:  27    -0.625932683003E+03   -0.33358E-05   -0.52962E-08  2896   0.381E-04    0.372E-04
RMM:  28    -0.625932684584E+03   -0.15801E-05   -0.45906E-08  2829   0.376E-04    0.358E-04
RMM:  29    -0.625932685235E+03   -0.65179E-06   -0.21070E-08  1977   0.328E-04
   8 F= -.62593269E+03 E0= -.62589352E+03  d E =-.783404E-01  mag=    -1.1882
       N       E                     dE             d eps       ncg     rms          rms(c)
DAV:   1    -0.625933578126E+03   -0.89354E-03   -0.45203E+00  8800   0.290E+00    0.584E-01
RMM:   2    -0.625928067133E+03    0.55110E-02   -0.26030E-02  8800   0.242E-01    0.811E-01
RMM:   3    -0.625929202470E+03   -0.11353E-02   -0.32336E-03  8810   0.889E-02    0.364E-01
RMM:   4    -0.625931510854E+03   -0.23084E-02   -0.10973E-03  8802   0.475E-02    0.259E-01
RMM:   5    -0.625932254480E+03   -0.74363E-03   -0.35254E-04  8800   0.264E-02    0.287E-01
RMM:   6    -0.625931638190E+03    0.61629E-03   -0.10212E-04  8833   0.168E-02    0.209E-01
RMM:   7    -0.625931024614E+03    0.61358E-03   -0.37213E-04  8800   0.288E-02    0.627E-02
RMM:   8    -0.625931746936E+03   -0.72232E-03   -0.56476E-05  8759   0.136E-02    0.427E-02
RMM:   9    -0.625932051996E+03   -0.30506E-03   -0.31764E-05  8452   0.742E-03    0.531E-02
RMM:  10    -0.625932124020E+03   -0.72024E-04   -0.10292E-05  7609   0.483E-03    0.367E-02
RMM:  11    -0.625932328205E+03   -0.20418E-03   -0.84394E-06  6786   0.317E-03    0.249E-02
RMM:  12    -0.625932441284E+03   -0.11308E-03   -0.81525E-06  6713   0.291E-03    0.181E-02
RMM:  13    -0.625932470879E+03   -0.29595E-04   -0.28302E-06  5796   0.203E-03    0.166E-02
RMM:  14    -0.625932478251E+03   -0.73715E-05   -0.82288E-07  5244   0.155E-03    0.166E-02
RMM:  15    -0.625932480653E+03   -0.24028E-05   -0.10814E-06  5278   0.156E-03    0.134E-02
RMM:  16    -0.625932475196E+03    0.54571E-05   -0.40167E-07  5033   0.103E-03    0.638E-03
RMM:  17    -0.625932484378E+03   -0.91814E-05   -0.40621E-07  4995   0.102E-03    0.378E-03
RMM:  18    -0.625932486329E+03   -0.19516E-05   -0.16697E-07  4546   0.728E-04    0.407E-03
RMM:  19    -0.625932488165E+03   -0.18358E-05   -0.81825E-08  3326   0.483E-04    0.302E-03
RMM:  20    -0.625932489897E+03   -0.17321E-05   -0.58840E-08  2676   0.395E-04    0.247E-03
RMM:  21    -0.625932492100E+03   -0.22032E-05   -0.91243E-08  3300   0.434E-04    0.202E-03
RMM:  22    -0.625932491922E+03    0.17818E-06   -0.18789E-07  4117   0.506E-04
   9 F= -.62593249E+03 E0= -.62589349E+03  d E =-.780129E-01  mag=    -1.1497
       N       E                     dE             d eps       ncg     rms          rms(c)
DAV:   1    -0.625932394836E+03    0.97265E-04   -0.23725E+00  8800   0.212E+00    0.327E-01
RMM:   2    -0.625932321483E+03    0.73353E-04   -0.90512E-03  8789   0.157E-01    0.852E-02
RMM:   3    -0.625932446984E+03   -0.12550E-03   -0.64085E-04  9412   0.341E-02    0.424E-02
RMM:   4    -0.625932314211E+03    0.13277E-03   -0.72238E-05  8799   0.135E-02    0.325E-02
RMM:   5    -0.625932492966E+03   -0.17876E-03   -0.15538E-05  7973   0.594E-03    0.189E-02
RMM:   6    -0.625932483363E+03    0.96033E-05   -0.23941E-06  5741   0.264E-03    0.134E-02
RMM:   7    -0.625932453574E+03    0.29789E-04   -0.25496E-06  5700   0.230E-03    0.732E-03
RMM:   8    -0.625932419664E+03    0.33910E-04   -0.13419E-06  5428   0.168E-03    0.420E-03
RMM:   9    -0.625932423175E+03   -0.35117E-05   -0.12331E-06  5295   0.180E-03    0.235E-03
RMM:  10    -0.625932451260E+03   -0.28085E-04   -0.32231E-07  4841   0.104E-03    0.164E-03
RMM:  11    -0.625932465801E+03   -0.14540E-04   -0.25961E-07  4696   0.805E-04    0.112E-03
RMM:  12    -0.625932483574E+03   -0.17774E-04   -0.20415E-07  4470   0.650E-04    0.936E-04
RMM:  13    -0.625932492027E+03   -0.84529E-05   -0.14483E-07  3925   0.549E-04    0.735E-04
RMM:  14    -0.625932496314E+03   -0.42869E-05   -0.84182E-08  3056   0.447E-04    0.689E-04
RMM:  15    -0.625932499402E+03   -0.30875E-05   -0.64445E-08  2451   0.392E-04    0.493E-04
RMM:  16    -0.625932500955E+03   -0.15534E-05   -0.45142E-08  2246   0.376E-04    0.461E-04
RMM:  17    -0.625932501821E+03   -0.86617E-06   -0.32252E-08  2033   0.351E-04
  10 F= -.62593250E+03 E0= -.62589341E+03  d E =-.781827E-01  mag=    -1.1702
       N       E                     dE             d eps       ncg     rms          rms(c)
DAV:   1    -0.625930538237E+03    0.19627E-02   -0.49459E+00  8800   0.300E+00    0.294E-01
RMM:   2    -0.625931590106E+03   -0.10519E-02   -0.15355E-02  8792   0.203E-01    0.579E-02
RMM:   3    -0.625931862694E+03   -0.27259E-03   -0.95880E-04  9611   0.376E-02    0.442E-02
RMM:   4    -0.625931945849E+03   -0.83156E-04   -0.44234E-05  8722   0.920E-03    0.291E-02
RMM:   5    -0.625931970471E+03   -0.24621E-04   -0.82359E-06  7020   0.376E-03    0.195E-02
RMM:   6    -0.625931879567E+03    0.90904E-04   -0.70550E-06  6923   0.358E-03    0.126E-02
RMM:   7    -0.625931970027E+03   -0.90460E-04   -0.28394E-06  5868   0.271E-03    0.774E-03
RMM:   8    -0.625931961801E+03    0.82261E-05   -0.60257E-07  5203   0.156E-03    0.400E-03
RMM:   9    -0.625931977641E+03   -0.15840E-04   -0.32448E-07  4770   0.902E-04    0.245E-03
RMM:  10    -0.625931986163E+03   -0.85217E-05   -0.25909E-07  4788   0.767E-04    0.229E-03
RMM:  11    -0.625931985538E+03    0.62499E-06   -0.68446E-08  3412   0.503E-04
  11 F= -.62593199E+03 E0= -.62589289E+03  d E =-.781848E-01  mag=    -1.1677
       N       E                     dE             d eps       ncg     rms          rms(c)
DAV:   1    -0.625928946022E+03    0.30401E-02   -0.24436E+00  8800   0.213E+00    0.419E-01
RMM:   2    -0.625927178424E+03    0.17676E-02   -0.14800E-02  8800   0.191E-01    0.561E-01
RMM:   3    -0.625925335707E+03    0.18427E-02   -0.21054E-03  8835   0.620E-02    0.291E-01
RMM:   4    -0.625918601321E+03    0.67344E-02   -0.12215E-03  8800   0.489E-02    0.165E-01
RMM:   5    -0.625923649354E+03   -0.50480E-02   -0.52670E-04  8805   0.306E-02    0.105E-01
RMM:   6    -0.625925300765E+03   -0.16514E-02   -0.10173E-04  8800   0.158E-02    0.731E-02
RMM:   7    -0.625925177439E+03    0.12333E-03   -0.59676E-05  8757   0.114E-02    0.515E-02
RMM:   8    -0.625926804184E+03   -0.16267E-02   -0.30873E-05  8255   0.741E-03    0.408E-02
RMM:   9    -0.625927437434E+03   -0.63325E-03   -0.20878E-05  8261   0.621E-03    0.305E-02
RMM:  10    -0.625927954235E+03   -0.51680E-03   -0.15301E-05  7922   0.516E-03    0.314E-02
RMM:  11    -0.625928486470E+03   -0.53223E-03   -0.10688E-05  7207   0.401E-03    0.268E-02
RMM:  12    -0.625928858067E+03   -0.37160E-03   -0.70726E-06  6547   0.303E-03    0.188E-02
RMM:  13    -0.625929191009E+03   -0.33294E-03   -0.89787E-06  6821   0.319E-03    0.136E-02
RMM:  14    -0.625929394539E+03   -0.20353E-03   -0.96768E-06  6976   0.336E-03    0.122E-02
RMM:  15    -0.625929452979E+03   -0.58440E-04   -0.27887E-06  5758   0.199E-03    0.101E-02
RMM:  16    -0.625929514075E+03   -0.61096E-04   -0.16103E-06  5517   0.145E-03    0.883E-03
RMM:  17    -0.625929576799E+03   -0.62723E-04   -0.26224E-06  5778   0.150E-03    0.744E-03
RMM:  18    -0.625929606215E+03   -0.29416E-04   -0.15430E-06  5306   0.121E-03    0.672E-03
RMM:  19    -0.625929620837E+03   -0.14622E-04   -0.80656E-07  5011   0.108E-03    0.668E-03
RMM:  20    -0.625929625849E+03   -0.50121E-05   -0.31892E-07  4292   0.844E-04    0.541E-03
RMM:  21    -0.625929631862E+03   -0.60133E-05   -0.31837E-07  4038   0.678E-04    0.635E-03
RMM:  22    -0.625929635991E+03   -0.41287E-05   -0.25826E-07  4058   0.636E-04    0.475E-03
RMM:  23    -0.625929636890E+03   -0.89940E-06   -0.13138E-07  3256   0.508E-04
  12 F= -.62592964E+03 E0= -.62589043E+03  d E =-.784204E-01  mag=    -1.1958
       N       E                     dE             d eps       ncg     rms          rms(c)
DAV:   1    -0.625930134446E+03   -0.49846E-03   -0.48731E+00  8800   0.296E+00    0.841E-01
RMM:   2    -0.625930287098E+03   -0.15265E-03   -0.31245E-02  8800   0.246E-01    0.111E-01
RMM:   3    -0.625930827165E+03   -0.54007E-03   -0.28653E-03 10152   0.591E-02    0.526E-02
RMM:   4    -0.625930789474E+03    0.37692E-04   -0.13284E-04  9930   0.129E-02    0.331E-02
RMM:   5    -0.625930837498E+03   -0.48024E-04   -0.11670E-05  7604   0.509E-03    0.259E-02
RMM:   6    -0.625930838291E+03   -0.79318E-06   -0.14769E-06  5458   0.196E-03
  13 F= -.62593084E+03 E0= -.62589187E+03  d E =-.779321E-01  mag=    -1.1396
