 vasp.5.4.4.18Apr17-6-g9f103f2a35 (build Feb 25 2019 10:51:38) complex          
  
 executed on             LinuxIFC date 2022.11.22  08:59:08
 running on   40 total cores
 distrk:  each k-point on   40 cores,    1 groups
 distr:  one band on NCORES_PER_BAND=   1 cores,   40 groups


--------------------------------------------------------------------------------------------------------


 INCAR:
 POTCAR:    PAW_PBE Ir 06Sep2000                  
 POTCAR:    PAW_PBE O 08Apr2002                   
 POTCAR:    PAW_PBE Ir 06Sep2000                  
 POTCAR:    PAW_PBE O 08Apr2002                   

 ----------------------------------------------------------------------------- 
|                                                                             |
|           W    W    AA    RRRRR   N    N  II  N    N   GGGG   !!!           |
|           W    W   A  A   R    R  NN   N  II  NN   N  G    G  !!!           |
|           W    W  A    A  R    R  N N  N  II  N N  N  G       !!!           |
|           W WW W  AAAAAA  RRRRR   N  N N  II  N  N N  G  GGG   !            |
|           WW  WW  A    A  R   R   N   NN  II  N   NN  G    G                |
|           W    W  A    A  R    R  N    N  II  N    N   GGGG   !!!           |
|                                                                             |
|      For optimal performance we recommend to set                            |
|        NCORE= 4 - approx SQRT( number of cores)                             |
|      NCORE specifies how many cores store one orbital (NPAR=cpu/NCORE).     |
|      This setting can  greatly improve the performance of VASP for DFT.     |
|      The default,   NCORE=1            might be grossly inefficient         |
|      on modern multi-core architectures or massively parallel machines.     |
|      Do your own testing !!!!                                               |
|      Unfortunately you need to use the default for GW and RPA calculations. |
|      (for HF NCORE is supported but not extensively tested yet)             |
|                                                                             |
 ----------------------------------------------------------------------------- 

 POTCAR:    PAW_PBE Ir 06Sep2000                  
   VRHFIN =Ir: s1d8                                                             
   LEXCH  = PE                                                                  
   EATOM  =   560.1833 eV,   41.1723 Ry                                         
                                                                                
   TITEL  = PAW_PBE Ir 06Sep2000                                                
   LULTRA =        F    use ultrasoft PP ?                                      
   IUNSCR =        1    unscreen: 0-lin 1-nonlin 2-no                           
   RPACOR =    2.250    partial core radius                                     
   POMASS =  192.220; ZVAL   =    9.000    mass and valenz                      
   RCORE  =    2.600    outmost cutoff radius                                   
   RWIGS  =    2.690; RWIGS  =    1.423    wigner-seitz radius (au A)           
   ENMAX  =  210.864; ENMIN  =  158.148 eV                                      
   RCLOC  =    1.857    cutoff for local pot                                    
   LCOR   =        T    correct aug charges                                     
   LPAW   =        T    paw PP                                                  
   EAUG   =  318.962                                                            
   DEXC   =    0.000                                                            
   RMAX   =    2.667    core radius for proj-oper                               
   RAUG   =    1.300    factor for augmentation sphere                          
   RDEP   =    2.748    radius for radial grids                                 
   RDEPT  =    2.300    core radius for aug-charge                              
                                                                                
   Atomic configuration                                                         
   16 entries                                                                   
     n  l   j            E        occ.                                          
     1  0  0.50    -76100.0449   2.0000                                         
     2  0  0.50    -13308.1683   2.0000                                         
     2  1  1.50    -11558.0021   6.0000                                         
     3  0  0.50     -3110.7274   2.0000                                         
     3  1  1.50     -2599.2109   6.0000                                         
     3  2  2.50     -2037.1515  10.0000                                         
     4  0  0.50      -661.6001   2.0000                                         
     4  1  1.50      -493.8981   6.0000                                         
     4  2  2.50      -288.1909  10.0000                                         
     4  3  3.50       -59.5718  14.0000                                         
     5  0  0.50       -95.3879   2.0000                                         
     5  1  1.50       -52.2747   6.0000                                         
     5  2  2.50        -5.4180   8.0000                                         
     6  0  0.50        -5.5479   1.0000                                         
     6  1  1.50        -6.8029   0.0000                                         
     5  3  2.50        -1.3606   0.0000                                         
   Description                                                                  
     l       E           TYP  RCUT    TYP  RCUT                                 
     2     -5.4179967     23  2.600                                             
     2     -6.7785793     23  2.600                                             
     0     -5.5478636     23  2.600                                             
     0      2.2542272     23  2.600                                             
     1     -2.7211652     23  2.600                                             
     1     20.4087390     23  2.600                                             
  local pseudopotential read in
  partial core-charges read in
  partial kinetic energy density read in
  atomic valenz-charges read in
  non local Contribution for L=           2  read in
    real space projection operators read in
  non local Contribution for L=           2  read in
    real space projection operators read in
  non local Contribution for L=           0  read in
    real space projection operators read in
  non local Contribution for L=           0  read in
    real space projection operators read in
  non local Contribution for L=           1  read in
    real space projection operators read in
  non local Contribution for L=           1  read in
    real space projection operators read in
    PAW grid and wavefunctions read in
 
   number of l-projection  operators is LMAX  =           6
   number of lm-projection operators is LMMAX =          18
 
 POTCAR:    PAW_PBE O 08Apr2002                   
   VRHFIN =O: s2p4                                                              
   LEXCH  = PE                                                                  
   EATOM  =   432.3788 eV,   31.7789 Ry                                         
                                                                                
   TITEL  = PAW_PBE O 08Apr2002                                                 
   LULTRA =        F    use ultrasoft PP ?                                      
   IUNSCR =        1    unscreen: 0-lin 1-nonlin 2-no                           
   RPACOR =    1.200    partial core radius                                     
   POMASS =   16.000; ZVAL   =    6.000    mass and valenz                      
   RCORE  =    1.520    outmost cutoff radius                                   
   RWIGS  =    1.550; RWIGS  =    0.820    wigner-seitz radius (au A)           
   ENMAX  =  400.000; ENMIN  =  300.000 eV                                      
   ICORE  =        2    local potential                                         
   LCOR   =        T    correct aug charges                                     
   LPAW   =        T    paw PP                                                  
   EAUG   =  605.392                                                            
   DEXC   =    0.000                                                            
   RMAX   =    1.553    core radius for proj-oper                               
   RAUG   =    1.300    factor for augmentation sphere                          
   RDEP   =    1.550    radius for radial grids                                 
   RDEPT  =    1.329    core radius for aug-charge                              
                                                                                
   Atomic configuration                                                         
    4 entries                                                                   
     n  l   j            E        occ.                                          
     1  0  0.50      -514.6923   2.0000                                         
     2  0  0.50       -23.9615   2.0000                                         
     2  1  0.50        -9.0305   4.0000                                         
     3  2  1.50        -9.5241   0.0000                                         
   Description                                                                  
     l       E           TYP  RCUT    TYP  RCUT                                 
     0    -23.9615318     23  1.200                                             
     0     -9.5240782     23  1.200                                             
     1     -9.0304911     23  1.520                                             
     1      8.1634956     23  1.520                                             
     2     -9.5240782      7  1.500                                             
  local pseudopotential read in
  partial core-charges read in
  partial kinetic energy density read in
  kinetic energy density of atom read in
  atomic valenz-charges read in
  non local Contribution for L=           0  read in
    real space projection operators read in
  non local Contribution for L=           0  read in
    real space projection operators read in
  non local Contribution for L=           1  read in
    real space projection operators read in
  non local Contribution for L=           1  read in
    real space projection operators read in
    PAW grid and wavefunctions read in
 
   number of l-projection  operators is LMAX  =           4
   number of lm-projection operators is LMMAX =           8
 
 POTCAR:    PAW_PBE Ir 06Sep2000                  
   VRHFIN =Ir: s1d8                                                             
   LEXCH  = PE                                                                  
   EATOM  =   560.1833 eV,   41.1723 Ry                                         
                                                                                
   TITEL  = PAW_PBE Ir 06Sep2000                                                
   LULTRA =        F    use ultrasoft PP ?                                      
   IUNSCR =        1    unscreen: 0-lin 1-nonlin 2-no                           
   RPACOR =    2.250    partial core radius                                     
   POMASS =  192.220; ZVAL   =    9.000    mass and valenz                      
   RCORE  =    2.600    outmost cutoff radius                                   
   RWIGS  =    2.690; RWIGS  =    1.423    wigner-seitz radius (au A)           
   ENMAX  =  210.864; ENMIN  =  158.148 eV                                      
   RCLOC  =    1.857    cutoff for local pot                                    
   LCOR   =        T    correct aug charges                                     
   LPAW   =        T    paw PP                                                  
   EAUG   =  318.962                                                            
   DEXC   =    0.000                                                            
   RMAX   =    2.667    core radius for proj-oper                               
   RAUG   =    1.300    factor for augmentation sphere                          
   RDEP   =    2.748    radius for radial grids                                 
   RDEPT  =    2.300    core radius for aug-charge                              
                                                                                
   Atomic configuration                                                         
   16 entries                                                                   
     n  l   j            E        occ.                                          
     1  0  0.50    -76100.0449   2.0000                                         
     2  0  0.50    -13308.1683   2.0000                                         
     2  1  1.50    -11558.0021   6.0000                                         
     3  0  0.50     -3110.7274   2.0000                                         
     3  1  1.50     -2599.2109   6.0000                                         
     3  2  2.50     -2037.1515  10.0000                                         
     4  0  0.50      -661.6001   2.0000                                         
     4  1  1.50      -493.8981   6.0000                                         
     4  2  2.50      -288.1909  10.0000                                         
     4  3  3.50       -59.5718  14.0000                                         
     5  0  0.50       -95.3879   2.0000                                         
     5  1  1.50       -52.2747   6.0000                                         
     5  2  2.50        -5.4180   8.0000                                         
     6  0  0.50        -5.5479   1.0000                                         
     6  1  1.50        -6.8029   0.0000                                         
     5  3  2.50        -1.3606   0.0000                                         
   Description                                                                  
     l       E           TYP  RCUT    TYP  RCUT                                 
     2     -5.4179967     23  2.600                                             
     2     -6.7785793     23  2.600                                             
     0     -5.5478636     23  2.600                                             
     0      2.2542272     23  2.600                                             
     1     -2.7211652     23  2.600                                             
     1     20.4087390     23  2.600                                             
  local pseudopotential read in
  partial core-charges read in
  partial kinetic energy density read in
  atomic valenz-charges read in
  non local Contribution for L=           2  read in
    real space projection operators read in
  non local Contribution for L=           2  read in
    real space projection operators read in
  non local Contribution for L=           0  read in
    real space projection operators read in
  non local Contribution for L=           0  read in
    real space projection operators read in
  non local Contribution for L=           1  read in
    real space projection operators read in
  non local Contribution for L=           1  read in
    real space projection operators read in
    PAW grid and wavefunctions read in
 
   number of l-projection  operators is LMAX  =           6
   number of lm-projection operators is LMMAX =          18
 
 POTCAR:    PAW_PBE O 08Apr2002                   
   VRHFIN =O: s2p4                                                              
   LEXCH  = PE                                                                  
   EATOM  =   432.3788 eV,   31.7789 Ry                                         
                                                                                
   TITEL  = PAW_PBE O 08Apr2002                                                 
   LULTRA =        F    use ultrasoft PP ?                                      
   IUNSCR =        1    unscreen: 0-lin 1-nonlin 2-no                           
   RPACOR =    1.200    partial core radius                                     
   POMASS =   16.000; ZVAL   =    6.000    mass and valenz                      
   RCORE  =    1.520    outmost cutoff radius                                   
   RWIGS  =    1.550; RWIGS  =    0.820    wigner-seitz radius (au A)           
   ENMAX  =  400.000; ENMIN  =  300.000 eV                                      
   ICORE  =        2    local potential                                         
   LCOR   =        T    correct aug charges                                     
   LPAW   =        T    paw PP                                                  
   EAUG   =  605.392                                                            
   DEXC   =    0.000                                                            
   RMAX   =    1.553    core radius for proj-oper                               
   RAUG   =    1.300    factor for augmentation sphere                          
   RDEP   =    1.550    radius for radial grids                                 
   RDEPT  =    1.329    core radius for aug-charge                              
                                                                                
   Atomic configuration                                                         
    4 entries                                                                   
     n  l   j            E        occ.                                          
     1  0  0.50      -514.6923   2.0000                                         
     2  0  0.50       -23.9615   2.0000                                         
     2  1  0.50        -9.0305   4.0000                                         
     3  2  1.50        -9.5241   0.0000                                         
   Description                                                                  
     l       E           TYP  RCUT    TYP  RCUT                                 
     0    -23.9615318     23  1.200                                             
     0     -9.5240782     23  1.200                                             
     1     -9.0304911     23  1.520                                             
     1      8.1634956     23  1.520                                             
     2     -9.5240782      7  1.500                                             
  local pseudopotential read in
  partial core-charges read in
  partial kinetic energy density read in
  kinetic energy density of atom read in
  atomic valenz-charges read in
  non local Contribution for L=           0  read in
    real space projection operators read in
  non local Contribution for L=           0  read in
    real space projection operators read in
  non local Contribution for L=           1  read in
    real space projection operators read in
  non local Contribution for L=           1  read in
    real space projection operators read in
    PAW grid and wavefunctions read in
 
   number of l-projection  operators is LMAX  =           4
   number of lm-projection operators is LMMAX =           8
 
 Optimization of the real space projectors (new method)

 maximal supplied QI-value         = 14.36
 optimisation between [QCUT,QGAM] = [ 11.35, 22.84] = [ 36.05,146.02] Ry 
 Optimized for a Real-space Cutoff    1.52 Angstroem

   l    n(q)    QCUT    max X(q) W(low)/X(q) W(high)/X(q)  e(spline) 
   2      9    11.346   134.116    0.47E-03    0.13E-03    0.92E-06
   2      9    11.346   130.192    0.47E-03    0.13E-03    0.92E-06
   0     10    11.346    60.310    0.74E-04    0.13E-03    0.69E-06
   0     10    11.346    39.218    0.68E-04    0.12E-03    0.65E-06
   1     10    11.346    18.439    0.15E-03    0.34E-04    0.20E-06
   1     10    11.346    12.760    0.12E-03    0.31E-04    0.16E-06
 Optimization of the real space projectors (new method)

 maximal supplied QI-value         = 24.76
 optimisation between [QCUT,QGAM] = [ 11.39, 22.77] = [ 36.31,145.25] Ry 
 Optimized for a Real-space Cutoff    1.00 Angstroem

   l    n(q)    QCUT    max X(q) W(low)/X(q) W(high)/X(q)  e(spline) 
   0      7    11.387    20.381    0.39E-03    0.13E-02    0.15E-06
   0      7    11.387    15.268    0.42E-03    0.14E-02    0.17E-06
   1      6    11.387     5.964    0.41E-03    0.11E-02    0.17E-06
   1      6    11.387     5.382    0.39E-03    0.87E-03    0.15E-06
 Optimization of the real space projectors (new method)

 maximal supplied QI-value         = 14.36
 optimisation between [QCUT,QGAM] = [ 11.35, 22.84] = [ 36.05,146.02] Ry 
 Optimized for a Real-space Cutoff    1.52 Angstroem

   l    n(q)    QCUT    max X(q) W(low)/X(q) W(high)/X(q)  e(spline) 
   2      9    11.346   134.116    0.47E-03    0.13E-03    0.92E-06
   2      9    11.346   130.192    0.47E-03    0.13E-03    0.92E-06
   0     10    11.346    60.310    0.74E-04    0.13E-03    0.69E-06
   0     10    11.346    39.218    0.68E-04    0.12E-03    0.65E-06
   1     10    11.346    18.439    0.15E-03    0.34E-04    0.20E-06
   1     10    11.346    12.760    0.12E-03    0.31E-04    0.16E-06
 Optimization of the real space projectors (new method)

 maximal supplied QI-value         = 24.76
 optimisation between [QCUT,QGAM] = [ 11.39, 22.77] = [ 36.31,145.25] Ry 
 Optimized for a Real-space Cutoff    1.00 Angstroem

   l    n(q)    QCUT    max X(q) W(low)/X(q) W(high)/X(q)  e(spline) 
   0      7    11.387    20.381    0.39E-03    0.13E-02    0.15E-06
   0      7    11.387    15.268    0.42E-03    0.14E-02    0.17E-06
   1      6    11.387     5.964    0.41E-03    0.11E-02    0.17E-06
   1      6    11.387     5.382    0.39E-03    0.87E-03    0.15E-06

 ----------------------------------------------------------------------------- 
|                                                                             |
|  ADVICE TO THIS USER RUNNING 'VASP/VAMP'   (HEAR YOUR MASTER'S VOICE ...):  |
|                                                                             |
|      You enforced a specific xc-type in the INCAR file,                     |
|      a different type was found on the POTCAR file                          |
|          I HOPE YOU KNOW, WHAT YOU ARE  DOING                               |
|                                                                             |
 ----------------------------------------------------------------------------- 

  PAW_PBE Ir 06Sep2000                  :
 energy of atom  1       EATOM= -560.1833
 kinetic energy error for atom=    0.0018 (will be added to EATOM!!)
  PAW_PBE O 08Apr2002                   :
 energy of atom  2       EATOM= -432.3788
 kinetic energy error for atom=    0.0224 (will be added to EATOM!!)
  PAW_PBE Ir 06Sep2000                  :
 energy of atom  3       EATOM= -560.1833
 kinetic energy error for atom=    0.0018 (will be added to EATOM!!)
  PAW_PBE O 08Apr2002                   :
 energy of atom  4       EATOM= -432.3788
 kinetic energy error for atom=    0.0224 (will be added to EATOM!!)
 
 
 POSCAR: Ir  O Ir  O                             
  positions in cartesian coordinates
  No initial velocities read in
 exchange correlation table for  LEXCH =        9
   RHO(1)=    0.500       N(1)  =     2000
   RHO(2)=  100.500       N(2)  =     4000

 VTST: version 3.2, (02/03/18)

 CHAIN: initializing optimizer
 
 OPT: Using VASP Dynamics algorithm
 CHAIN: Read ICHAIN            0
 
 POSCAR: Ir  O Ir  O                             
  positions in cartesian coordinates
  No initial velocities read in
 


--------------------------------------------------------------------------------------------------------


 ion  position               nearest neighbor table
   1  0.125  0.500  0.188-  21 2.00  29 2.00  17 2.02  25 2.02  26 2.02  18 2.02   2 3.20  50 3.20

   2  0.375  0.500  0.188-  22 2.00  30 2.00  26 2.02  18 2.02  65 2.02  73 2.02   1 3.20  49 3.20

   3  0.125  0.000  0.062-  23 2.00  31 2.00  19 2.02  27 2.02  28 2.02  20 2.02   4 3.20  52 3.20

   4  0.375  0.000  0.062-  24 2.00  32 2.00  28 2.02  20 2.02  67 2.02  75 2.02   3 3.20  51 3.20

   5  0.000  0.500  0.062-  17 2.00  23 2.02  31 2.02  72 2.02  80 2.02   6 3.20  54 3.20
   6  0.250  0.500  0.062-  18 2.00  23 2.02  24 2.02  31 2.02  32 2.02   5 3.20  53 3.20
   7  0.000  0.000  0.188-  35 1.99  27 2.00  29 2.02  21 2.02  70 2.02  78 2.02   8 3.20  56 3.20

   8  0.250  0.000  0.188-  36 1.99  28 2.00  21 2.02  29 2.02  30 2.02  22 2.02   7 3.20  55 3.20

   9  0.125  0.500  0.439-  41 2.00  42 2.00  45 2.01  37 2.01  33 2.04  34 2.04  10 3.21  58 3.21

  10  0.375  0.500  0.440-  89 1.99  42 1.99  38 2.01  46 2.01  81 2.04  34 2.04  57 3.20   9 3.21

  11  0.125  0.000  0.312-  39 2.00  47 2.00  43 2.02  44 2.02  35 2.02  36 2.02  12 3.21  60 3.21

  12  0.375  0.000  0.312-  91 1.99  40 1.99  48 1.99  83 2.02  44 2.02  36 2.03  59 3.19  11 3.21

  13  1.000  0.500  0.313-  33 2.00  25 2.02  47 2.02  39 2.02  88 2.02  96 2.02  62 3.20  14 3.20

  14  0.250  0.500  0.313-  34 2.00  26 2.02  40 2.03  48 2.03  47 2.03  39 2.03  61 3.20  13 3.20

  15  0.998  1.000  0.435-  43 1.96  94 2.02  86 2.02  37 2.04  45 2.04  64 3.25  16 3.25
  16  0.252  1.000  0.436-  44 1.96  46 2.02  38 2.02  37 2.04  45 2.04  63 3.25  15 3.25
  17  0.000  0.500  0.140-   5 2.00   1 2.02  50 2.02
  18  0.250  0.500  0.140-   6 2.00   2 2.02   1 2.02
  19  0.000  0.000  0.015-   3 2.02  52 2.02
  20  0.250  0.000  0.015-   3 2.02   4 2.02
  21  0.125  0.808  0.188-   1 2.00   7 2.02   8 2.02
  22  0.375  0.808  0.188-   2 2.00   8 2.02  55 2.02
  23  0.125  0.308  0.062-   3 2.00   5 2.02   6 2.02
  24  0.375  0.308  0.062-   4 2.00   6 2.02  53 2.02
  25  0.000  0.500  0.235-  13 2.02   1 2.02  50 2.02
  26  0.250  0.500  0.235-  14 2.02   2 2.02   1 2.02
  27  0.000  0.000  0.110-   7 2.00   3 2.02  52 2.02
  28  0.250  0.000  0.110-   8 2.00   4 2.02   3 2.02
  29  0.125  0.192  0.188-   1 2.00   7 2.02   8 2.02
  30  0.375  0.192  0.188-   2 2.00   8 2.02  55 2.02
  31  0.125  0.692  0.062-   3 2.00   5 2.02   6 2.02
  32  0.375  0.692  0.062-   4 2.00   6 2.02  53 2.02
  33  1.000  0.500  0.391-  13 2.00   9 2.04  58 2.04
  34  0.250  0.500  0.391-  14 2.00   9 2.04  10 2.04
  35  1.000  0.001  0.264-   7 1.99  11 2.02  60 2.03
  36  0.250  0.001  0.264-   8 1.99  11 2.02  12 2.03
  37  0.125  0.811  0.440-   9 2.01  15 2.04  16 2.04
  38  0.377  0.810  0.443-  10 2.01  16 2.02  63 2.06
  39  0.125  0.309  0.313-  11 2.00  13 2.02  14 2.03
  40  0.375  0.308  0.313-  12 1.99  61 2.02  14 2.03
  41  1.000  0.500  0.485-  58 1.99   9 2.00
  42  0.250  0.499  0.485-  10 1.99   9 2.00
  43  1.000  0.000  0.360-  15 1.96  11 2.02  60 2.02
  44  0.250  0.000  0.360-  16 1.96  11 2.02  12 2.02
  45  0.125  0.189  0.440-   9 2.01  15 2.04  16 2.04
  46  0.377  0.189  0.443-  10 2.01  16 2.02  63 2.06
  47  0.125  0.692  0.313-  11 2.00  13 2.02  14 2.03
  48  0.375  0.692  0.313-  12 1.99  61 2.02  14 2.03
  49  0.625  0.500  0.188-  69 2.00  77 2.00  65 2.02  73 2.02  74 2.02  66 2.02   2 3.20  50 3.20

  50  0.875  0.500  0.188-  70 2.00  78 2.00  66 2.02  17 2.02  74 2.02  25 2.02   1 3.20  49 3.20

  51  0.625  0.000  0.062-  71 2.00  79 2.00  67 2.02  75 2.02  76 2.02  68 2.02   4 3.20  52 3.20

  52  0.875  0.000  0.062-  72 2.00  80 2.00  68 2.02  19 2.02  76 2.02  27 2.02   3 3.20  51 3.20

  53  0.500  0.500  0.062-  65 2.00  32 2.02  24 2.02  71 2.02  79 2.02  54 3.20   6 3.20
  54  0.750  0.500  0.062-  66 2.00  71 2.02  72 2.02  79 2.02  80 2.02  53 3.20   5 3.20
  55  0.500  0.000  0.188-  75 2.00  83 2.00  69 2.02  22 2.02  77 2.02  30 2.02   8 3.20  56 3.20

  56  0.750  0.000  0.188-  76 2.00  84 2.00  69 2.02  77 2.02  78 2.02  70 2.02   7 3.20  55 3.20

  57  0.625  0.500  0.436-  89 1.98  90 1.98  93 1.99  85 1.99  82 2.03  81 2.03  10 3.20  58 3.20

  58  0.874  0.500  0.440-  90 1.99  41 1.99  94 2.01  86 2.01  33 2.04  82 2.05  57 3.20   9 3.21

  59  0.625  0.000  0.313-  87 1.99  95 1.99  83 2.03  84 2.03  92 2.06  91 2.06  12 3.19  60 3.20

  60  0.874  0.000  0.312-  92 1.99  96 1.99  88 1.99  84 2.02  43 2.02  35 2.03  59 3.20  11 3.21

  61  0.500  0.500  0.313-  81 1.98  73 2.00  40 2.02  48 2.02  95 2.03  87 2.03  14 3.20  62 3.21

  62  0.750  0.500  0.313-  82 1.98  74 2.00  88 2.03  96 2.03  87 2.03  95 2.03  13 3.20  61 3.21

  63  0.505  1.000  0.441-  98 1.89  85 2.01  93 2.01  38 2.06  46 2.06  91 2.07  64 3.06  16 3.25

  64  0.744  1.000  0.440-  97 1.89  93 2.01  85 2.01  86 2.06  94 2.06  92 2.06  63 3.06  15 3.25

  65  0.500  0.500  0.140-  53 2.00  49 2.02   2 2.02
  66  0.750  0.500  0.140-  54 2.00  50 2.02  49 2.02
  67  0.500  0.000  0.015-   4 2.02  51 2.02
  68  0.750  0.000  0.015-  51 2.02  52 2.02
  69  0.625  0.808  0.188-  49 2.00  55 2.02  56 2.02
  70  0.875  0.808  0.188-  50 2.00   7 2.02  56 2.02
  71  0.625  0.308  0.062-  51 2.00  53 2.02  54 2.02
  72  0.875  0.308  0.062-  52 2.00   5 2.02  54 2.02
  73  0.500  0.500  0.235-  61 2.00  49 2.02   2 2.02
  74  0.750  0.500  0.235-  62 2.00  50 2.02  49 2.02
  75  0.500  0.000  0.110-  55 2.00  51 2.02   4 2.02
  76  0.750  0.000  0.110-  56 2.00  52 2.02  51 2.02
  77  0.625  0.192  0.188-  49 2.00  55 2.02  56 2.02
  78  0.875  0.192  0.188-  50 2.00   7 2.02  56 2.02
  79  0.625  0.692  0.062-  51 2.00  53 2.02  54 2.02
  80  0.875  0.692  0.062-  52 2.00   5 2.02  54 2.02
  81  0.498  0.500  0.389-  61 1.98  57 2.03  10 2.04
  82  0.751  0.499  0.389-  62 1.98  57 2.03  58 2.05
  83  0.500  0.000  0.265-  55 2.00  12 2.02  59 2.03
  84  0.749  0.000  0.265-  56 2.00  60 2.02  59 2.03
  85  0.625  0.805  0.428-  57 1.99  63 2.01  64 2.01
  86  0.873  0.810  0.442-  58 2.01  15 2.02  64 2.06
  87  0.625  0.308  0.312-  59 1.99  61 2.03  62 2.03
  88  0.875  0.308  0.313-  60 1.99  13 2.02  62 2.03
  89  0.503  0.500  0.483-  57 1.98  10 1.99
  90  0.747  0.500  0.483-  57 1.98  58 1.99
  91  0.496  0.000  0.361-  12 1.99  59 2.06  63 2.07
  92  0.754  0.000  0.361-  60 1.99  59 2.06  64 2.06
  93  0.625  0.194  0.428-  57 1.99  63 2.01  64 2.01
  94  0.873  0.189  0.443-  58 2.01  15 2.02  64 2.06
  95  0.625  0.692  0.313-  59 1.99  61 2.03  62 2.03
  96  0.875  0.692  0.313-  60 1.99  13 2.02  62 2.03
  97  0.692  0.998  0.509-  98 1.71  64 1.89
  98  0.558  0.998  0.509-  97 1.71  63 1.89
 
  LATTYP: Found a simple orthorhombic cell.
 ALAT       =     6.4702430000
 B/A-ratio  =     1.9796060210
 C/A-ratio  =     4.0000000000
  
  Lattice vectors:
  
 A1 = (   0.0000000000,  -6.4702430000,   0.0000000000)
 A2 = ( -12.8085320000,   0.0000000000,   0.0000000000)
 A3 = (   0.0000000000,   0.0000000000, -25.8809720000)


Analysis of symmetry for initial positions (statically):
=====================================================================
 Subroutine PRICEL returns:
 Original cell was already a primitive cell.
 

 Routine SETGRP: Setting up the symmetry group for a 
 simple orthorhombic supercell.


 Subroutine GETGRP returns: Found  1 space group operations
 (whereof  1 operations were pure point group operations)
 out of a pool of  8 trial point group operations.


The static configuration has the point symmetry C_1 .


Analysis of symmetry for dynamics (positions and initial velocities):
=====================================================================
 Subroutine PRICEL returns:
 Original cell was already a primitive cell.
 

 Routine SETGRP: Setting up the symmetry group for a 
 simple orthorhombic supercell.


 Subroutine GETGRP returns: Found  1 space group operations
 (whereof  1 operations were pure point group operations)
 out of a pool of  8 trial point group operations.


The dynamic configuration has the point symmetry C_1 .


Analysis of constrained symmetry for selective dynamics:
=====================================================================
 Subroutine PRICEL returns:
 Original cell was already a primitive cell.
 

 Routine SETGRP: Setting up the symmetry group for a 
 simple orthorhombic supercell.


 Subroutine GETGRP returns: Found  1 space group operations
 (whereof  1 operations were pure point group operations)
 out of a pool of  8 trial point group operations.


The constrained configuration has the point symmetry C_1 .


Analysis of structural, dynamic, and magnetic symmetry:
=====================================================================
 Subroutine PRICEL returns:
 Original cell was already a primitive cell.
 

 Routine SETGRP: Setting up the symmetry group for a 
 simple orthorhombic supercell.


 Subroutine GETGRP returns: Found  1 space group operations
 (whereof  1 operations were pure point group operations)
 out of a pool of  8 trial point group operations.


The magnetic configuration has the point symmetry C_1 .


 Subroutine INISYM returns: Found  1 space group operations
 (whereof  1 operations are pure point group operations),
 and found     1 'primitive' translations

 
 
 KPOINTS: Automatic mesh                          

Automatic generation of k-mesh.
Space group operators:
 irot       det(A)        alpha          n_x          n_y          n_z        tau_x        tau_y        tau_z
    1     1.000000     0.000001     1.000000     0.000000     0.000000     0.000000     0.000000     0.000000
 
 Subroutine IBZKPT returns following result:
 ===========================================
 
 Found      5 irreducible k-points:
 
 Following reciprocal coordinates:
            Coordinates               Weight
  0.000000  0.000000  0.000000      1.000000
  0.333333  0.000000  0.000000      2.000000
  0.000000  0.333333  0.000000      2.000000
  0.333333  0.333333  0.000000      2.000000
 -0.333333  0.333333  0.000000      2.000000
 
 Following cartesian coordinates:
            Coordinates               Weight
  0.000000  0.000000  0.000000      1.000000
  0.026024  0.000000  0.000000      2.000000
  0.000000  0.051518  0.000000      2.000000
  0.026024  0.051518  0.000000      2.000000
 -0.026024  0.051518  0.000000      2.000000
 
 
 Subroutine IBZKPT_HF returns following result:
 ==============================================
 
 Found      9 k-points in 1st BZ
 the following      9 k-points will be used (e.g. in the exchange kernel)
 Following reciprocal coordinates:   # in IRBZ
  0.000000  0.000000  0.000000    0.11111111   1 t-inv F
  0.333333  0.000000  0.000000    0.11111111   2 t-inv F
  0.000000  0.333333  0.000000    0.11111111   3 t-inv F
  0.333333  0.333333  0.000000    0.11111111   4 t-inv F
 -0.333333  0.333333  0.000000    0.11111111   5 t-inv F
 -0.333333  0.000000  0.000000    0.11111111   2 t-inv T
  0.000000 -0.333333  0.000000    0.11111111   3 t-inv T
 -0.333333 -0.333333  0.000000    0.11111111   4 t-inv T
  0.333333 -0.333333  0.000000    0.11111111   5 t-inv T


--------------------------------------------------------------------------------------------------------




 Dimension of arrays:
   k-points           NKPTS =      5   k-points in BZ     NKDIM =      5   number of bands    NBANDS=    440
   number of dos      NEDOS =    301   number of ions     NIONS =     98
   non local maximal  LDIM  =      6   non local SUM 2l+1 LMDIM =     18
   total plane-waves  NPLWV = 362880
   max r-space proj   IRMAX =   2532   max aug-charges    IRDMAX=  12432
   dimension x,y,z NGX =    70 NGY =   36 NGZ =  144
   dimension x,y,z NGXF=   140 NGYF=   72 NGZF=  288
   support grid    NGXF=   140 NGYF=   72 NGZF=  288
   ions per type =              16  32  16  34
   NGX,Y,Z   is equivalent  to a cutoff of   9.09,  9.25,  9.25 a.u.
   NGXF,Y,Z  is equivalent  to a cutoff of  18.17, 18.50, 18.50 a.u.

 SYSTEM =  unknown system                          
 POSCAR =  Ir  O Ir  O                             

 Startparameter for this run:
   NWRITE =      2    write-flag & timer
   PREC   = normal    normal or accurate (medium, high low for compatibility)
   ISTART =      0    job   : 0-new  1-cont  2-samecut
   ICHARG =      2    charge: 1-file 2-atom 10-const
   ISPIN  =      2    spin polarized calculation?
   LNONCOLLINEAR =      F non collinear calculations
   LSORBIT =      F    spin-orbit coupling
   INIWAV =      1    electr: 0-lowe 1-rand  2-diag
   LASPH  =      F    aspherical Exc in radial PAW
   METAGGA=      F    non-selfconsistent MetaGGA calc.

 Electronic Relaxation 1
   ENCUT  =  500.0 eV  36.75 Ry    6.06 a.u.  23.35 11.80 47.19*2*pi/ulx,y,z
   ENINI  =  500.0     initial cutoff
   ENAUG  =  605.4 eV  augmentation charge cutoff
   NELM   =     60;   NELMIN=  4; NELMDL= -5     # of ELM steps 
   EDIFF  = 0.1E-05   stopping-criterion for ELM
   LREAL  =      T    real-space projection
   NLSPLINE    = F    spline interpolate recip. space projectors
   LCOMPAT=      F    compatible to vasp.4.4
   GGA_COMPAT  = T    GGA compatible to vasp.4.4-vasp.4.6
   LMAXPAW     = -100 max onsite density
   LMAXMIX     =    2 max onsite mixed and CHGCAR
   VOSKOWN=      0    Vosko Wilk Nusair interpolation
   ROPT   =   -0.00050  -0.00050  -0.00050  -0.00050
 Ionic relaxation
   EDIFFG = -.5E-01   stopping-criterion for IOM
   NSW    =   1213    number of steps for IOM
   NBLOCK =      1;   KBLOCK =   1213    inner block; outer block 
   IBRION =      5    ionic relax: 0-MD 1-quasi-New 2-CG
   NFREE  =      2    steps in history (QN), initial steepest desc. (CG)
   ISIF   =      2    stress and relaxation
   IWAVPR =     11    prediction:  0-non 1-charg 2-wave 3-comb
   ISYM   =      2    0-nonsym 1-usesym 2-fastsym
   LCORR  =      T    Harris-Foulkes like correction to forces

   POTIM  = 0.5000    time-step for ionic-motion
   TEIN   =    0.0    initial temperature
   TEBEG  =    0.0;   TEEND  =   0.0 temperature during run
   SMASS  =  -3.00    Nose mass-parameter (am)
   estimated Nose-frequenzy (Omega)   =  0.10E-29 period in steps =****** mass=  -0.375E-26a.u.
   SCALEE = 1.0000    scale energy and forces
   NPACO  =    256;   APACO  = 16.0  distance and # of slots for P.C.
   PSTRESS=    0.0 pullay stress

  Mass of Ions in am
   POMASS = 192.22 16.00192.22 16.00
  Ionic Valenz
   ZVAL   =   9.00  6.00  9.00  6.00
  Atomic Wigner-Seitz radii
   RWIGS  =  -1.00 -1.00 -1.00 -1.00
  virtual crystal weights 
   VCA    =   1.00  1.00  1.00  1.00
   NELECT =     684.0000    total number of electrons
   NUPDOWN=      -1.0000    fix difference up-down

 DOS related values:
   EMIN   =  10.00;   EMAX   =-10.00  energy-range for DOS
   EFERMI =   0.00
   ISMEAR =     0;   SIGMA  =   0.05  broadening in eV -4-tet -1-fermi 0-gaus

 Electronic relaxation 2 (details)
   IALGO  =     68    algorithm
   LDIAG  =      T    sub-space diagonalisation (order eigenvalues)
   LSUBROT=      F    optimize rotation matrix (better conditioning)
   TURBO    =      0    0=normal 1=particle mesh
   IRESTART =      0    0=no restart 2=restart with 2 vectors
   NREBOOT  =      0    no. of reboots
   NMIN     =      0    reboot dimension
   EREF     =   0.00    reference energy to select bands
   IMIX   =      4    mixing-type and parameters
     AMIX     =   0.40;   BMIX     =  1.00
     AMIX_MAG =   1.60;   BMIX_MAG =  1.00
     AMIN     =   0.10
     WC   =   100.;   INIMIX=   1;  MIXPRE=   1;  MAXMIX=  60

 Intra band minimization:
   WEIMIN = 0.0010     energy-eigenvalue tresh-hold
   EBREAK =  0.57E-09  absolut break condition
   DEPER  =   0.30     relativ break condition  

   TIME   =   0.40     timestep for ELM

  volume/ion in A,a.u.               =      21.89       147.70
  Fermi-wavevector in a.u.,A,eV,Ry     =   1.118476  2.113613 17.020734  1.250989
  Thomas-Fermi vector in A             =   2.255107
 
 Write flags
   LWAVE        =      F    write WAVECAR
   LDOWNSAMPLE  =      F    k-point downsampling of WAVECAR
   LCHARG       =      F    write CHGCAR
   LVTOT        =      F    write LOCPOT, total local potential
   LVHAR        =      T    write LOCPOT, Hartree potential only
   LELF         =      F    write electronic localiz. function (ELF)
   LORBIT       =      0    0 simple, 1 ext, 2 COOP (PROOUT), +10 PAW based schemes


 Dipole corrections
   LMONO  =      F    monopole corrections only (constant potential shift)
   LDIPOL =      T    correct potential (dipole corrections)
   IDIPOL =      3    1-x, 2-y, 3-z, 4-all directions 
   EPSILON=  1.0000000 bulk dielectric constant

 Exchange correlation treatment:
   GGA     =    RP    GGA type
   LEXCH   =     9    internal setting for exchange type
   VOSKOWN=      0    Vosko Wilk Nusair interpolation
   LHFCALC =     F    Hartree Fock is set to
   LHFONE  =     F    Hartree Fock one center treatment
   AEXX    =    0.0000 exact exchange contribution

 Linear response parameters
   LEPSILON=     F    determine dielectric tensor
   LRPA    =     F    only Hartree local field effects (RPA)
   LNABLA  =     F    use nabla operator in PAW spheres
   LVEL    =     F    velocity operator in full k-point grid
   LINTERFAST=   F  fast interpolation
   KINTER  =     0    interpolate to denser k-point grid
   CSHIFT  =0.1000    complex shift for real part using Kramers Kronig
   OMEGAMAX=  -1.0    maximum frequency
   DEG_THRESHOLD= 0.2000000E-02 threshold for treating states as degnerate
   RTIME   =   -0.100 relaxation time in fs
  (WPLASMAI=    0.000 imaginary part of plasma frequency in eV, 0.658/RTIME)
   DFIELD  = 0.0000000 0.0000000 0.0000000 field for delta impulse in time
 
 Orbital magnetization related:
   ORBITALMAG=     F  switch on orbital magnetization
   LCHIMAG   =     F  perturbation theory with respect to B field
   DQ        =  0.001000  dq finite difference perturbation B field
   LLRAUG    =     F  two centre corrections for induced B field



--------------------------------------------------------------------------------------------------------


 finite differences
   using selective dynamics as specified on POSCAR
   WARNING: If single coordinates had been selected the selection of coordinates
            is made according to the corresponding   d i r e c t   coordinates!
            Don't support selection of single cartesian coordinates -- sorry ...
  !
 charge density and potential will be updated during run
 spin polarized calculation
 RMM-DIIS sequential band-by-band and
  variant of blocked Davidson during initial phase
 perform sub-space diagonalisation
    before iterative eigenvector-optimisation
 modified Broyden-mixing scheme, WC =      100.0
 initial mixing is a Kerker type mixing with AMIX =  0.4000 and BMIX =      1.0000
 Hartree-type preconditioning will be used
 using additional bands           98
 real space projection scheme for non local part
 use partial core corrections
 calculate Harris-corrections to forces 
   (improved forces if not selfconsistent)
 use gradient corrections 
 use of overlap-Matrix (Vanderbilt PP)
 Gauss-broadening in eV      SIGMA  =   0.05


--------------------------------------------------------------------------------------------------------


  energy-cutoff  :      500.00
  volume of cell :     2144.87
      direct lattice vectors                 reciprocal lattice vectors
    12.808532000  0.000000000  0.000000000     0.078072959  0.000000000  0.000000000
     0.000000000  6.470243000  0.000000000     0.000000000  0.154553701  0.000000000
     0.000000000  0.000000000 25.880972000     0.000000000  0.000000000  0.038638425

  length of vectors
    12.808532000  6.470243000 25.880972000     0.078072959  0.154553701  0.038638425


 
 k-points in units of 2pi/SCALE and weight: Automatic mesh                          
   0.00000000  0.00000000  0.00000000       0.111
   0.02602432  0.00000000  0.00000000       0.222
   0.00000000  0.05151790  0.00000000       0.222
   0.02602432  0.05151790  0.00000000       0.222
  -0.02602432  0.05151790  0.00000000       0.222
 
 k-points in reciprocal lattice and weights: Automatic mesh                          
   0.00000000  0.00000000  0.00000000       0.111
   0.33333333  0.00000000  0.00000000       0.222
   0.00000000  0.33333333  0.00000000       0.222
   0.33333333  0.33333333  0.00000000       0.222
  -0.33333333  0.33333333  0.00000000       0.222
 
 position of ions in fractional coordinates (direct lattice) 
   0.12500000  0.50000000  0.18750000
   0.37500000  0.50000000  0.18750000
   0.12500000  0.00000000  0.06250000
   0.37500000  0.00000000  0.06250000
   0.00000000  0.50000000  0.06250000
   0.25000000  0.50000000  0.06250000
   0.00000000  0.00000000  0.18750000
   0.25000000  0.00000000  0.18750000
   0.12484565  0.49984958  0.43941885
   0.37522890  0.49969756  0.43973091
   0.12478080  0.00021733  0.31200731
   0.37535712  0.00028963  0.31234270
   0.99985457  0.50019087  0.31338551
   0.24981853  0.50019617  0.31339028
   0.99787563  0.99978085  0.43528585
   0.25197606  0.99984948  0.43550224
   0.00000000  0.50000000  0.13961000
   0.25000000  0.50000000  0.13961000
   0.00000000  0.00000000  0.01461000
   0.25000000  0.00000000  0.01461000
   0.12500000  0.80844000  0.18750000
   0.37500000  0.80844000  0.18750000
   0.12500000  0.30844000  0.06250000
   0.37500000  0.30844000  0.06250000
   0.00000000  0.50000000  0.23539000
   0.25000000  0.50000000  0.23539000
   0.00000000  0.00000000  0.11039000
   0.25000000  0.00000000  0.11039000
   0.12500000  0.19156000  0.18750000
   0.37500000  0.19156000  0.18750000
   0.12500000  0.69156000  0.06250000
   0.37500000  0.69156000  0.06250000
   0.99955484  0.49999730  0.39063409
   0.25023219  0.49983874  0.39058455
   0.99990945  0.00050477  0.26421316
   0.24978131  0.00051759  0.26425839
   0.12488285  0.81073647  0.44039878
   0.37652684  0.81024795  0.44312918
   0.12468323  0.30851624  0.31323415
   0.37482855  0.30847704  0.31275885
   0.99956706  0.49996931  0.48527792
   0.24999849  0.49912812  0.48546291
   0.99989154  0.00001614  0.35953924
   0.24966791  0.00010148  0.35969627
   0.12485964  0.18902940  0.44041073
   0.37661266  0.18915313  0.44322409
   0.12468810  0.69182295  0.31318108
   0.37482950  0.69208968  0.31274131
   0.62500000  0.50000000  0.18750000
   0.87500000  0.50000000  0.18750000
   0.62500000  0.00000000  0.06250000
   0.87500000  0.00000000  0.06250000
   0.50000000  0.50000000  0.06250000
   0.75000000  0.50000000  0.06250000
   0.50000000  0.00000000  0.18750000
   0.75000000  0.00000000  0.18750000
   0.62471439  0.49971017  0.43637752
   0.87434613  0.49963736  0.43952736
   0.62457291  0.00016572  0.31348416
   0.87409584  0.00019561  0.31222169
   0.49957495  0.50021424  0.31281473
   0.74996564  0.50010112  0.31276263
   0.50536370  0.99955259  0.44076095
   0.74434864  0.99959010  0.44043860
   0.50000000  0.50000000  0.13961000
   0.75000000  0.50000000  0.13961000
   0.50000000  0.00000000  0.01461000
   0.75000000  0.00000000  0.01461000
   0.62500000  0.80844000  0.18750000
   0.87500000  0.80844000  0.18750000
   0.62500000  0.30844000  0.06250000
   0.87500000  0.30844000  0.06250000
   0.50000000  0.50000000  0.23539000
   0.75000000  0.50000000  0.23539000
   0.50000000  0.00000000  0.11039000
   0.75000000  0.00000000  0.11039000
   0.62500000  0.19156000  0.18750000
   0.87500000  0.19156000  0.18750000
   0.62500000  0.69156000  0.06250000
   0.87500000  0.69156000  0.06250000
   0.49798897  0.49986917  0.38927908
   0.75117342  0.49933788  0.38922637
   0.50017192  0.00006967  0.26490364
   0.74916088  0.00003921  0.26484303
   0.62473435  0.80525381  0.42771352
   0.87311438  0.81004052  0.44242838
   0.62457538  0.30814900  0.31237351
   0.87502710  0.30838397  0.31262360
   0.50292643  0.49982599  0.48347935
   0.74671720  0.49988093  0.48336943
   0.49554311  0.00034316  0.36099210
   0.75352701  0.00040072  0.36079123
   0.62474272  0.19425896  0.42808887
   0.87315260  0.18929461  0.44264235
   0.62459046  0.69215223  0.31256453
   0.87499017  0.69202566  0.31272987
   0.69205364  0.99780416  0.50865113
   0.55819279  0.99760532  0.50889936
 
 position of ions in cartesian coordinates  (Angst):
   1.60106650  3.23512150  4.85268225
   4.80319950  3.23512150  4.85268225
   1.60106650  0.00000000  1.61756075
   4.80319950  0.00000000  1.61756075
   0.00000000  3.23512150  1.61756075
   3.20213300  3.23512150  1.61756075
   0.00000000  0.00000000  4.85268225
   3.20213300  0.00000000  4.85268225
   1.59908953  3.23414825 11.37258707
   4.80613143  3.23316463 11.38066332
   1.59825881  0.00140617  8.07505238
   4.80777366  0.00187395  8.08373275
  12.80666919  3.23635644  8.11072166
   3.19980858  3.23639076  8.11084498
  12.78132198  6.46882505 11.26562081
   3.22744347  6.46926910 11.27122118
   0.00000000  3.23512150  3.61324250
   3.20213300  3.23512150  3.61324250
   0.00000000  0.00000000  0.37812100
   3.20213300  0.00000000  0.37812100
   1.60106650  5.23080325  4.85268225
   4.80319950  5.23080325  4.85268225
   1.60106650  1.99568175  1.61756075
   4.80319950  1.99568175  1.61756075
   0.00000000  3.23512150  6.09212200
   3.20213300  3.23512150  6.09212200
   0.00000000  0.00000000  2.85700050
   3.20213300  0.00000000  2.85700050
   1.60106650  1.23943975  4.85268225
   4.80319950  1.23943975  4.85268225
   1.60106650  4.47456125  1.61756075
   4.80319950  4.47456125  1.61756075
  12.80283018  3.23510401 10.10998986
   3.20510697  3.23407810 10.10870785
  12.80737222  0.00326600  6.83809332
   3.19933186  0.00334893  6.83926406
   1.59956600  5.24566199 11.39794850
   4.82275608  5.24250114 11.46861401
   1.59700914  1.99617506  8.10680419
   4.80100343  1.99592140  8.09450294
  12.80298662  3.23492295 12.55946425
   3.20211368  3.22948024 12.56425206
  12.80714282  0.00010446  9.30522509
   3.19787935  0.00065658  9.30928906
   1.59926864  1.22306618 11.39825784
   4.82385525  1.22386674 11.47107017
   1.59707151  4.47626257  8.10543072
   4.80101565  4.47798843  8.09404910
   8.00533250  3.23512150  4.85268225
  11.20746550  3.23512150  4.85268225
   8.00533250  0.00000000  1.61756075
  11.20746550  0.00000000  1.61756075
   6.40426600  3.23512150  1.61756075
   9.60639900  3.23512150  1.61756075
   6.40426600  0.00000000  4.85268225
   9.60639900  0.00000000  4.85268225
   8.00167427  3.23324621 11.29387447
  11.19909040  3.23277515 11.37539526
   7.99986210  0.00107227  8.11327469
  11.19588452  0.00126567  8.08060093
   6.39882173  3.23650768  8.09594936
   9.60595890  3.23577578  8.09460084
   6.47296717  6.46734815 11.40732170
   9.53401336  6.46759084 11.39897914
   6.40426600  3.23512150  3.61324250
   9.60639900  3.23512150  3.61324250
   6.40426600  0.00000000  0.37812100
   9.60639900  0.00000000  0.37812100
   8.00533250  5.23080325  4.85268225
  11.20746550  5.23080325  4.85268225
   8.00533250  1.99568175  1.61756075
  11.20746550  1.99568175  1.61756075
   6.40426600  3.23512150  6.09212200
   9.60639900  3.23512150  6.09212200
   6.40426600  0.00000000  2.85700050
   9.60639900  0.00000000  2.85700050
   8.00533250  1.23943975  4.85268225
  11.20746550  1.23943975  4.85268225
   8.00533250  4.47456125  1.61756075
  11.20746550  4.47456125  1.61756075
   6.37850765  3.23427502 10.07492088
   9.62142878  3.23083742 10.07355683
   6.40646803  0.00045080  6.85596362
   9.59565111  0.00025372  6.85439492
   8.00192988  5.21018782 11.06964164
  11.18331354  5.24115902 11.45047642
   7.99989368  1.99379892  8.08453016
  11.20781255  1.99531919  8.09100258
   6.44174928  3.23399562 12.51291543
   9.56435120  3.23435106 12.51007057
   6.34717980  0.00222032  9.34282639
   9.65157481  0.00259274  9.33762762
   8.00203711  1.25690268 11.07935597
  11.18380304  1.22478210 11.45601416
   8.00008687  4.47839312  8.08947383
  11.20733962  4.47757421  8.09375298
   8.86419114  6.45603538 13.16438569
   7.14963027  6.45474883 13.17081013
 


--------------------------------------------------------------------------------------------------------


 k-point  1 :   0.0000 0.0000 0.0000  plane waves:   54455
 k-point  2 :   0.3333 0.0000 0.0000  plane waves:   54459
 k-point  3 :   0.0000 0.3333 0.0000  plane waves:   54468
 k-point  4 :   0.3333 0.3333 0.0000  plane waves:   54434
 k-point  5 :  -0.3333 0.3333 0.0000  plane waves:   54434

 maximum and minimum number of plane-waves per node :     54468    54434

 maximum number of plane-waves:     54468
 maximum index in each direction: 
   IXMAX=   23   IYMAX=   11   IZMAX=   47
   IXMIN=  -23   IYMIN=  -12   IZMIN=  -47


 serial   3D FFT for wavefunctions
 parallel 3D FFT for charge:
    minimum data exchange during FFTs selected (reduces bandwidth)


 total amount of memory used by VASP MPI-rank0   191885. kBytes
=======================================================================

   base      :      30000. kBytes
   nonlr-proj:      19666. kBytes
   fftplans  :       4196. kBytes
   grid      :      37119. kBytes
   one-center:       3048. kBytes
   wavefun   :      97856. kBytes
 
     INWAV:  cpu time    0.0000: real time    0.0002
 Broyden mixing: mesh for mixing (old mesh)
   NGX = 47   NGY = 23   NGZ = 95
  (NGX  =140   NGY  = 72   NGZ  =288)
  gives a total of 102695 points

 initial charge density was supplied:
 charge density of overlapping atoms calculated
 number of electron     684.0000000 magnetization      58.8000000
 keeping initial charge density in first step


--------------------------------------------------------------------------------------------------------


 Maximum index for non-local projection operator         2431
 Maximum index for augmentation-charges          641 (set IRDMAX)


--------------------------------------------------------------------------------------------------------


 First call to EWALD:  gamma=   0.137
 Maximum number of real-space cells 3x 5x 2
 Maximum number of reciprocal cells 3x 2x 5

    FEWALD:  cpu time    0.0047: real time    0.0047


--------------------------------------- Iteration      1(   1)  ---------------------------------------


    POTLOK:  cpu time    0.1444: real time    0.1516
    SETDIJ:  cpu time    0.0203: real time    0.0230
     EDDAV:  cpu time   19.1826: real time   19.2640
       DOS:  cpu time    0.0015: real time    0.0026
    --------------------------------------------
      LOOP:  cpu time   19.3489: real time   19.4412

 eigenvalue-minimisations  :  8800
 total energy-change (2. order) : 0.7527350E+04  (-0.3086897E+05)
 number of electron     684.0000000 magnetization      58.8000000
 augmentation part      684.0000000 magnetization      58.8000000

 DIPCOR: dipole corrections for dipol
 direction  3 min pos   224,
 dipolmoment           0.000000      0.000000      0.000145 electrons x Angstroem
 Tr[quadrupol]    -12781.156714

 energy correction for charged system         0.000000 eV
 dipol+quadrupol energy correction           -0.000000 eV
 added-field ion interaction          0.004242 eV  (added to PSCEN)


 Free energy of the ion-electron system (eV)
  ---------------------------------------------------
  alpha Z        PSCENC =      1780.31503831
  Ewald energy   TEWEN  =    230932.43590853
  -Hartree energ DENC   =   -276954.96847430
  -exchange      EXHF   =         0.00000000
  -V(xc)+E(xc)   XCENC  =      1257.42619109
  PAW double counting   =     40555.36544842   -39336.07891203
  entropy T*S    EENTRO =        -0.05372103
  eigenvalues    EBANDS =      2859.44358287
  atomic energy  EATOM  =     46433.46497963
  Solvation  Ediel_sol  =         0.00000000
  ---------------------------------------------------
  free energy    TOTEN  =      7527.35004150 eV

  energy without entropy =     7527.40376253  energy(sigma->0) =     7527.37690201


--------------------------------------------------------------------------------------------------------




--------------------------------------- Iteration      1(   2)  ---------------------------------------


     EDDAV:  cpu time   19.8148: real time   19.8890
       DOS:  cpu time    0.0010: real time    0.0010
    --------------------------------------------
      LOOP:  cpu time   19.8158: real time   19.8899

 eigenvalue-minimisations  :  9200
 total energy-change (2. order) :-0.7044326E+04  (-0.6504639E+04)
 number of electron     684.0000000 magnetization      58.8000000
 augmentation part      684.0000000 magnetization      58.8000000

 DIPCOR: dipole corrections for dipol
 direction  3 min pos   224,
 dipolmoment           0.000000      0.000000      0.000145 electrons x Angstroem
 Tr[quadrupol]    -12781.156714

 energy correction for charged system         0.000000 eV
 dipol+quadrupol energy correction           -0.000000 eV
 added-field ion interaction          0.004242 eV  (added to PSCEN)


 Free energy of the ion-electron system (eV)
  ---------------------------------------------------
  alpha Z        PSCENC =      1780.31503831
  Ewald energy   TEWEN  =    230932.43590853
  -Hartree energ DENC   =   -276954.96847430
  -exchange      EXHF   =         0.00000000
  -V(xc)+E(xc)   XCENC  =      1257.42619109
  PAW double counting   =     40555.36544842   -39336.07891203
  entropy T*S    EENTRO =        -0.04365522
  eigenvalues    EBANDS =     -4184.89251294
  atomic energy  EATOM  =     46433.46497963
  Solvation  Ediel_sol  =         0.00000000
  ---------------------------------------------------
  free energy    TOTEN  =       483.02401150 eV

  energy without entropy =      483.06766672  energy(sigma->0) =      483.04583911


--------------------------------------------------------------------------------------------------------




--------------------------------------- Iteration      1(   3)  ---------------------------------------


     EDDAV:  cpu time   25.0212: real time   25.0953
       DOS:  cpu time    0.0009: real time    0.0009
    --------------------------------------------
      LOOP:  cpu time   25.0221: real time   25.0962

 eigenvalue-minimisations  : 12160
 total energy-change (2. order) :-0.1185832E+04  (-0.1143222E+04)
 number of electron     684.0000000 magnetization      58.8000000
 augmentation part      684.0000000 magnetization      58.8000000

 DIPCOR: dipole corrections for dipol
 direction  3 min pos   224,
 dipolmoment           0.000000      0.000000      0.000145 electrons x Angstroem
 Tr[quadrupol]    -12781.156714

 energy correction for charged system         0.000000 eV
 dipol+quadrupol energy correction           -0.000000 eV
 added-field ion interaction          0.004242 eV  (added to PSCEN)


 Free energy of the ion-electron system (eV)
  ---------------------------------------------------
  alpha Z        PSCENC =      1780.31503831
  Ewald energy   TEWEN  =    230932.43590853
  -Hartree energ DENC   =   -276954.96847430
  -exchange      EXHF   =         0.00000000
  -V(xc)+E(xc)   XCENC  =      1257.42619109
  PAW double counting   =     40555.36544842   -39336.07891203
  entropy T*S    EENTRO =        -0.07495007
  eigenvalues    EBANDS =     -5370.69364049
  atomic energy  EATOM  =     46433.46497963
  Solvation  Ediel_sol  =         0.00000000
  ---------------------------------------------------
  free energy    TOTEN  =      -702.80841091 eV

  energy without entropy =     -702.73346084  energy(sigma->0) =     -702.77093587


--------------------------------------------------------------------------------------------------------




--------------------------------------- Iteration      1(   4)  ---------------------------------------


     EDDAV:  cpu time   23.2059: real time   23.2642
       DOS:  cpu time    0.0009: real time    0.0009
    --------------------------------------------
      LOOP:  cpu time   23.2068: real time   23.2651

 eigenvalue-minimisations  : 11120
 total energy-change (2. order) :-0.5261582E+02  (-0.5137889E+02)
 number of electron     684.0000000 magnetization      58.8000000
 augmentation part      684.0000000 magnetization      58.8000000

 DIPCOR: dipole corrections for dipol
 direction  3 min pos   224,
 dipolmoment           0.000000      0.000000      0.000145 electrons x Angstroem
 Tr[quadrupol]    -12781.156714

 energy correction for charged system         0.000000 eV
 dipol+quadrupol energy correction           -0.000000 eV
 added-field ion interaction          0.004242 eV  (added to PSCEN)


 Free energy of the ion-electron system (eV)
  ---------------------------------------------------
  alpha Z        PSCENC =      1780.31503831
  Ewald energy   TEWEN  =    230932.43590853
  -Hartree energ DENC   =   -276954.96847430
  -exchange      EXHF   =         0.00000000
  -V(xc)+E(xc)   XCENC  =      1257.42619109
  PAW double counting   =     40555.36544842   -39336.07891203
  entropy T*S    EENTRO =        -0.08135133
  eigenvalues    EBANDS =     -5423.30305626
  atomic energy  EATOM  =     46433.46497963
  Solvation  Ediel_sol  =         0.00000000
  ---------------------------------------------------
  free energy    TOTEN  =      -755.42422793 eV

  energy without entropy =     -755.34287661  energy(sigma->0) =     -755.38355227


--------------------------------------------------------------------------------------------------------




--------------------------------------- Iteration      1(   5)  ---------------------------------------


     EDDAV:  cpu time   23.5358: real time   23.6227
       DOS:  cpu time    0.0009: real time    0.0009
    CHARGE:  cpu time    0.8627: real time    0.8648
    MIXING:  cpu time    0.0031: real time    0.0043
    --------------------------------------------
      LOOP:  cpu time   24.4026: real time   24.4927

 eigenvalue-minimisations  : 11320
 total energy-change (2. order) :-0.1398910E+01  (-0.1390808E+01)
 number of electron     684.0000431 magnetization      54.9246023
 augmentation part      118.8707251 magnetization      46.1335951

 DIPCOR: dipole corrections for dipol
 direction  3 min pos   224,
 dipolmoment           0.000000      0.000000      0.000145 electrons x Angstroem
 Tr[quadrupol]    -12781.156714

 energy correction for charged system         0.000000 eV
 dipol+quadrupol energy correction           -0.000000 eV
 added-field ion interaction          0.004242 eV  (added to PSCEN)


 Broyden mixing:
  rms(total) = 0.17234E+02    rms(broyden)= 0.17233E+02
  rms(prec ) = 0.17461E+02
  weight for this iteration     100.00

 Free energy of the ion-electron system (eV)
  ---------------------------------------------------
  alpha Z        PSCENC =      1780.31503831
  Ewald energy   TEWEN  =    230932.43590853
  -Hartree energ DENC   =   -276954.96847430
  -exchange      EXHF   =         0.00000000
  -V(xc)+E(xc)   XCENC  =      1257.42619109
  PAW double counting   =     40555.36544842   -39336.07891203
  entropy T*S    EENTRO =        -0.08177240
  eigenvalues    EBANDS =     -5424.70154542
  atomic energy  EATOM  =     46433.46497963
  Solvation  Ediel_sol  =         0.00000000
  ---------------------------------------------------
  free energy    TOTEN  =      -756.82313816 eV

  energy without entropy =     -756.74136576  energy(sigma->0) =     -756.78225196


--------------------------------------------------------------------------------------------------------




--------------------------------------- Iteration      1(   6)  ---------------------------------------


    POTLOK:  cpu time    0.1181: real time    0.1213
    SETDIJ:  cpu time    0.0202: real time    0.0202
    EDDIAG:  cpu time    3.7978: real time    3.8085
  RMM-DIIS:  cpu time   10.3994: real time   10.4295
    ORTHCH:  cpu time    0.8870: real time    0.8891
       DOS:  cpu time    0.0010: real time    0.0010
    CHARGE:  cpu time    0.8590: real time    0.8610
    MIXING:  cpu time    0.0033: real time    0.0043
    --------------------------------------------
      LOOP:  cpu time   16.0858: real time   16.1350

 eigenvalue-minimisations  :  8846
 total energy-change (2. order) : 0.1050245E+03  (-0.7136558E+02)
 number of electron     684.0000454 magnetization      52.1567176
 augmentation part      129.3724406 magnetization      41.2168588

 DIPCOR: dipole corrections for dipol
 direction  3 min pos   228,
 dipolmoment           0.000000      0.000000      1.266550 electrons x Angstroem
 Tr[quadrupol]    -12770.600140

 energy correction for charged system         0.000000 eV
 dipol+quadrupol energy correction           -0.067678 eV
 added-field ion interaction         63.322177 eV  (added to PSCEN)


 Broyden mixing:
  rms(total) = 0.12208E+02    rms(broyden)= 0.12206E+02
  rms(prec ) = 0.13322E+02
  weight for this iteration     100.00

 eigenvalues of (default mixing * dielectric matrix)
  average eigenvalue GAMMA=   0.8696
  0.8696

 Free energy of the ion-electron system (eV)
  ---------------------------------------------------
  alpha Z        PSCENC =      1843.56529507
  Ewald energy   TEWEN  =    230932.43590853
  -Hartree energ DENC   =   -277224.51754196
  -exchange      EXHF   =         0.00000000
  -V(xc)+E(xc)   XCENC  =      1337.57713517
  PAW double counting   =     48410.84884317   -47256.01175018
  entropy T*S    EENTRO =        -0.06648059
  eigenvalues    EBANDS =     -5129.09502653
  atomic energy  EATOM  =     46433.46497963
  Solvation  Ediel_sol  =         0.00000000
  ---------------------------------------------------
  free energy    TOTEN  =      -651.79863767 eV

  energy without entropy =     -651.73215708  energy(sigma->0) =     -651.76539738


--------------------------------------------------------------------------------------------------------




--------------------------------------- Iteration      1(   7)  ---------------------------------------


    POTLOK:  cpu time    0.1177: real time    0.1218
    SETDIJ:  cpu time    0.0202: real time    0.0202
    EDDIAG:  cpu time    3.7993: real time    3.8087
  RMM-DIIS:  cpu time   12.3347: real time   12.3663
    ORTHCH:  cpu time    0.8847: real time    0.8868
       DOS:  cpu time    0.0009: real time    0.0009
    CHARGE:  cpu time    0.8542: real time    0.8562
    MIXING:  cpu time    0.0029: real time    0.0029
    --------------------------------------------
      LOOP:  cpu time   18.0146: real time   18.0639

 eigenvalue-minimisations  : 10238
 total energy-change (2. order) :-0.1512396E+04  (-0.9374002E+02)
 number of electron     684.0000312 magnetization      52.0570109
 augmentation part      128.6179570 magnetization      46.6306389

 DIPCOR: dipole corrections for dipol
 direction  3 min pos   226,
 dipolmoment           0.000000      0.000000    -12.863248 electrons x Angstroem
 Tr[quadrupol]    -12788.686310

 energy correction for charged system         0.000000 eV
 dipol+quadrupol energy correction           -6.980831 eV
 added-field ion interaction       -509.676806 eV  (added to PSCEN)


 Broyden mixing:
  rms(total) = 0.39772E+02    rms(broyden)= 0.39771E+02
  rms(prec ) = 0.46269E+02
  weight for this iteration     100.00

 eigenvalues of (default mixing * dielectric matrix)
  average eigenvalue GAMMA=   0.4300
  0.8175  0.0424

 Free energy of the ion-electron system (eV)
  ---------------------------------------------------
  alpha Z        PSCENC =      1263.65316000
  Ewald energy   TEWEN  =    230932.43590853
  -Hartree energ DENC   =   -277929.08898782
  -exchange      EXHF   =         0.00000000
  -V(xc)+E(xc)   XCENC  =      1313.67520761
  PAW double counting   =     52942.63772323   -51792.36380506
  entropy T*S    EENTRO =        -0.02429073
  eigenvalues    EBANDS =     -5328.58467937
  atomic energy  EATOM  =     46433.46497963
  Solvation  Ediel_sol  =         0.00000000
  ---------------------------------------------------
  free energy    TOTEN  =     -2164.19478398 eV

  energy without entropy =    -2164.17049325  energy(sigma->0) =    -2164.18263861


--------------------------------------------------------------------------------------------------------




--------------------------------------- Iteration      1(   8)  ---------------------------------------


    POTLOK:  cpu time    0.1180: real time    0.1186
    SETDIJ:  cpu time    0.0201: real time    0.0201
    EDDIAG:  cpu time    3.7891: real time    3.7989
  RMM-DIIS:  cpu time   13.7377: real time   13.7725
    ORTHCH:  cpu time    0.8868: real time    0.8889
       DOS:  cpu time    0.0009: real time    0.0009
    CHARGE:  cpu time    0.8527: real time    0.8548
    MIXING:  cpu time    0.0033: real time    0.0054
    --------------------------------------------
      LOOP:  cpu time   19.4087: real time   19.4603

 eigenvalue-minimisations  : 11281
 total energy-change (2. order) : 0.1135193E+03  (-0.2349283E+02)
 number of electron     684.0000292 magnetization      51.5889467
 augmentation part      126.3396033 magnetization      44.4748044

 DIPCOR: dipole corrections for dipol
 direction  3 min pos   225,
 dipolmoment           0.000000      0.000000    -12.122465 electrons x Angstroem
 Tr[quadrupol]    -12792.606481

 energy correction for charged system         0.000000 eV
 dipol+quadrupol energy correction           -6.199943 eV
 added-field ion interaction       -417.451314 eV  (added to PSCEN)


 Broyden mixing:
  rms(total) = 0.36722E+02    rms(broyden)= 0.36722E+02
  rms(prec ) = 0.43645E+02
  weight for this iteration     100.00

 eigenvalues of (default mixing * dielectric matrix)
  average eigenvalue GAMMA=   0.3946
  0.8872  0.1484  0.1484

 Free energy of the ion-electron system (eV)
  ---------------------------------------------------
  alpha Z        PSCENC =      1356.65953888
  Ewald energy   TEWEN  =    230932.43590853
  -Hartree energ DENC   =   -277956.09996072
  -exchange      EXHF   =         0.00000000
  -V(xc)+E(xc)   XCENC  =      1313.32777526
  PAW double counting   =     53207.83756249   -52056.59325589
  entropy T*S    EENTRO =        -0.04632923
  eigenvalues    EBANDS =     -5281.66167238
  atomic energy  EATOM  =     46433.46497963
  Solvation  Ediel_sol  =         0.00000000
  ---------------------------------------------------
  free energy    TOTEN  =     -2050.67545342 eV

  energy without entropy =    -2050.62912419  energy(sigma->0) =    -2050.65228880


--------------------------------------------------------------------------------------------------------




--------------------------------------- Iteration      1(   9)  ---------------------------------------


    POTLOK:  cpu time    0.1195: real time    0.1313
    SETDIJ:  cpu time    0.0202: real time    0.0202
    EDDIAG:  cpu time    3.7971: real time    3.8063
  RMM-DIIS:  cpu time   10.2942: real time   10.3206
    ORTHCH:  cpu time    0.8879: real time    0.8900
       DOS:  cpu time    0.0009: real time    0.0009
    CHARGE:  cpu time    0.8565: real time    0.8585
    MIXING:  cpu time    0.0032: real time    0.0033
    --------------------------------------------
      LOOP:  cpu time   15.9795: real time   16.0312

 eigenvalue-minimisations  :  8845
 total energy-change (2. order) : 0.1288891E+04  (-0.3520325E+02)
 number of electron     684.0000427 magnetization      51.6141730
 augmentation part      123.6168906 magnetization      44.8054737

 DIPCOR: dipole corrections for dipol
 direction  3 min pos   228,
 dipolmoment           0.000000      0.000000      3.854716 electrons x Angstroem
 Tr[quadrupol]    -12748.868981

 energy correction for charged system         0.000000 eV
 dipol+quadrupol energy correction           -0.626889 eV
 added-field ion interaction        192.719598 eV  (added to PSCEN)


 Broyden mixing:
  rms(total) = 0.23037E+02    rms(broyden)= 0.23034E+02
  rms(prec ) = 0.25153E+02
  weight for this iteration     100.00

 eigenvalues of (default mixing * dielectric matrix)
  average eigenvalue GAMMA=   0.2973
  0.8709  0.1473  0.1473  0.0235

 Free energy of the ion-electron system (eV)
  ---------------------------------------------------
  alpha Z        PSCENC =      1972.40350572
  Ewald energy   TEWEN  =    230932.43590853
  -Hartree energ DENC   =   -276676.54604075
  -exchange      EXHF   =         0.00000000
  -V(xc)+E(xc)   XCENC  =      1315.58002456
  PAW double counting   =     52867.65756030   -51723.74921665
  entropy T*S    EENTRO =        -0.05335443
  eigenvalues    EBANDS =     -5882.97782229
  atomic energy  EATOM  =     46433.46497963
  Solvation  Ediel_sol  =         0.00000000
  ---------------------------------------------------
  free energy    TOTEN  =      -761.78445538 eV

  energy without entropy =     -761.73110095  energy(sigma->0) =     -761.75777817


--------------------------------------------------------------------------------------------------------




--------------------------------------- Iteration      1(  10)  ---------------------------------------


    POTLOK:  cpu time    0.1181: real time    0.1187
    SETDIJ:  cpu time    0.0200: real time    0.0201
    EDDIAG:  cpu time    3.7936: real time    3.8028
  RMM-DIIS:  cpu time   10.8591: real time   10.8869
    ORTHCH:  cpu time    0.8865: real time    0.8887
       DOS:  cpu time    0.0009: real time    0.0009
    CHARGE:  cpu time    0.8565: real time    0.8585
    MIXING:  cpu time    0.0034: real time    0.0035
    --------------------------------------------
      LOOP:  cpu time   16.5382: real time   16.5800

 eigenvalue-minimisations  :  9177
 total energy-change (2. order) : 0.2000503E+01  (-0.2530427E+01)
 number of electron     684.0000431 magnetization      50.8955083
 augmentation part      123.9655178 magnetization      44.5804582

 DIPCOR: dipole corrections for dipol
 direction  3 min pos   229,
 dipolmoment           0.000000      0.000000      3.698081 electrons x Angstroem
 Tr[quadrupol]    -12749.837123

 energy correction for charged system         0.000000 eV
 dipol+quadrupol energy correction           -0.576977 eV
 added-field ion interaction        204.068760 eV  (added to PSCEN)


 Broyden mixing:
  rms(total) = 0.25015E+02    rms(broyden)= 0.25015E+02
  rms(prec ) = 0.27009E+02
  weight for this iteration     100.00

 eigenvalues of (default mixing * dielectric matrix)
  average eigenvalue GAMMA=   0.2790
  0.9244  0.1651  0.1651  0.0702  0.0702

 Free energy of the ion-electron system (eV)
  ---------------------------------------------------
  alpha Z        PSCENC =      1983.80257872
  Ewald energy   TEWEN  =    230932.43590853
  -Hartree energ DENC   =   -276681.91017927
  -exchange      EXHF   =         0.00000000
  -V(xc)+E(xc)   XCENC  =      1315.68798055
  PAW double counting   =     52789.12692200   -51645.54466115
  entropy T*S    EENTRO =        -0.05437289
  eigenvalues    EBANDS =     -5886.79310859
  atomic energy  EATOM  =     46433.46497963
  Solvation  Ediel_sol  =         0.00000000
  ---------------------------------------------------
  free energy    TOTEN  =      -759.78395247 eV

  energy without entropy =     -759.72957958  energy(sigma->0) =     -759.75676602


--------------------------------------------------------------------------------------------------------




--------------------------------------- Iteration      1(  11)  ---------------------------------------


    POTLOK:  cpu time    0.1190: real time    0.1195
    SETDIJ:  cpu time    0.0201: real time    0.0201
    EDDIAG:  cpu time    3.8006: real time    3.8127
  RMM-DIIS:  cpu time   10.3460: real time   10.3718
    ORTHCH:  cpu time    0.8910: real time    0.8932
       DOS:  cpu time    0.0011: real time    0.0011
    CHARGE:  cpu time    0.8549: real time    0.8570
    MIXING:  cpu time    0.0042: real time    0.0042
    --------------------------------------------
      LOOP:  cpu time   16.0369: real time   16.0795

 eigenvalue-minimisations  :  8805
 total energy-change (2. order) : 0.9221439E+02  (-0.2178151E+01)
 number of electron     684.0000383 magnetization      49.8397983
 augmentation part      124.9551456 magnetization      40.9247508

 DIPCOR: dipole corrections for dipol
 direction  3 min pos   229,
 dipolmoment           0.000000      0.000000      0.803518 electrons x Angstroem
 Tr[quadrupol]    -12739.022355

 energy correction for charged system         0.000000 eV
 dipol+quadrupol energy correction           -0.027239 eV
 added-field ion interaction         44.339982 eV  (added to PSCEN)


 Broyden mixing:
  rms(total) = 0.13166E+02    rms(broyden)= 0.13164E+02
  rms(prec ) = 0.14553E+02
  weight for this iteration     100.00

 eigenvalues of (default mixing * dielectric matrix)
  average eigenvalue GAMMA=   0.3168
  0.8679  0.3690  0.3690  0.1221  0.1221  0.0507

 Free energy of the ion-electron system (eV)
  ---------------------------------------------------
  alpha Z        PSCENC =      1824.62353934
  Ewald energy   TEWEN  =    230932.43590853
  -Hartree energ DENC   =   -276556.07660791
  -exchange      EXHF   =         0.00000000
  -V(xc)+E(xc)   XCENC  =      1315.01564475
  PAW double counting   =     53603.95899521   -52464.09344154
  entropy T*S    EENTRO =        -0.06119020
  eigenvalues    EBANDS =     -5756.83739178
  atomic energy  EATOM  =     46433.46497963
  Solvation  Ediel_sol  =         0.00000000
  ---------------------------------------------------
  free energy    TOTEN  =      -667.56956397 eV

  energy without entropy =     -667.50837377  energy(sigma->0) =     -667.53896887


--------------------------------------------------------------------------------------------------------




--------------------------------------- Iteration      1(  12)  ---------------------------------------


    POTLOK:  cpu time    0.1190: real time    0.1231
    SETDIJ:  cpu time    0.0202: real time    0.0203
    EDDIAG:  cpu time    4.6873: real time    4.7179
  RMM-DIIS:  cpu time   10.3692: real time   10.3956
    ORTHCH:  cpu time    0.8873: real time    0.8894
       DOS:  cpu time    0.0009: real time    0.0009
    CHARGE:  cpu time    0.8481: real time    0.8510
    MIXING:  cpu time    0.0040: real time    0.0040
    --------------------------------------------
      LOOP:  cpu time   16.9360: real time   17.0022

 eigenvalue-minimisations  :  8853
 total energy-change (2. order) :-0.1536987E+03  (-0.1215519E+02)
 number of electron     684.0000461 magnetization      50.2427004
 augmentation part      124.6112596 magnetization      43.9128560

 DIPCOR: dipole corrections for dipol
 direction  3 min pos   233,
 dipolmoment           0.000000      0.000000      4.886121 electrons x Angstroem
 Tr[quadrupol]    -12772.090929

 energy correction for charged system         0.000000 eV
 dipol+quadrupol energy correction           -1.007243 eV
 added-field ion interaction        370.995869 eV  (added to PSCEN)


 Broyden mixing:
  rms(total) = 0.27098E+02    rms(broyden)= 0.27097E+02
  rms(prec ) = 0.29912E+02
  weight for this iteration     100.00

 eigenvalues of (default mixing * dielectric matrix)
  average eigenvalue GAMMA=   0.2707
  0.8468  0.3701  0.3701  0.1208  0.1208  0.0507  0.0156

 Free energy of the ion-electron system (eV)
  ---------------------------------------------------
  alpha Z        PSCENC =      2150.29942183
  Ewald energy   TEWEN  =    230932.43590853
  -Hartree energ DENC   =   -277011.49976553
  -exchange      EXHF   =         0.00000000
  -V(xc)+E(xc)   XCENC  =      1314.10089699
  PAW double counting   =     53363.18789373   -52229.08134170
  entropy T*S    EENTRO =        -0.02451267
  eigenvalues    EBANDS =     -5774.15175055
  atomic energy  EATOM  =     46433.46497963
  Solvation  Ediel_sol  =         0.00000000
  ---------------------------------------------------
  free energy    TOTEN  =      -821.26826973 eV

  energy without entropy =     -821.24375706  energy(sigma->0) =     -821.25601340


--------------------------------------------------------------------------------------------------------




--------------------------------------- Iteration      1(  13)  ---------------------------------------


    POTLOK:  cpu time    0.1193: real time    0.1301
    SETDIJ:  cpu time    0.0201: real time    0.0201
    EDDIAG:  cpu time    3.7867: real time    3.7958
[...]
     11.207340  4.477574  8.093753            0           0           0  
      8.864191  6.456035 13.164386     0.273131    0.556069   -0.131775  
      7.149630  6.454749 13.170810     0.254721   -0.729429   -0.043279  
 
   5 f  =    4.913531 THz    30.872625 2PiTHz  163.897742 cm-1    20.320737 meV
             X         Y         Z           dx          dy          dz
      1.601066  3.235121  4.852682            0           0           0  
      4.803199  3.235121  4.852682            0           0           0  
      1.601066  0.000000  1.617561            0           0           0  
      4.803199  0.000000  1.617561            0           0           0  
      0.000000  3.235121  1.617561            0           0           0  
      3.202133  3.235121  1.617561            0           0           0  
      0.000000  0.000000  4.852682            0           0           0  
      3.202133  0.000000  4.852682            0           0           0  
      1.599090  3.234148 11.372587            0           0           0  
      4.806131  3.233165 11.380663            0           0           0  
      1.598259  0.001406  8.075052            0           0           0  
      4.807774  0.001874  8.083733            0           0           0  
     12.806669  3.236356  8.110722            0           0           0  
      3.199809  3.236391  8.110845            0           0           0  
     12.781322  6.468825 11.265621            0           0           0  
      3.227443  6.469269 11.271221            0           0           0  
      0.000000  3.235121  3.613243            0           0           0  
      3.202133  3.235121  3.613243            0           0           0  
      0.000000  0.000000  0.378121            0           0           0  
      3.202133  0.000000  0.378121            0           0           0  
      1.601066  5.230803  4.852682            0           0           0  
      4.803199  5.230803  4.852682            0           0           0  
      1.601066  1.995682  1.617561            0           0           0  
      4.803199  1.995682  1.617561            0           0           0  
      0.000000  3.235121  6.092122            0           0           0  
      3.202133  3.235121  6.092122            0           0           0  
      0.000000  0.000000  2.857000            0           0           0  
      3.202133  0.000000  2.857000            0           0           0  
      1.601066  1.239440  4.852682            0           0           0  
      4.803199  1.239440  4.852682            0           0           0  
      1.601066  4.474561  1.617561            0           0           0  
      4.803199  4.474561  1.617561            0           0           0  
     12.802830  3.235104 10.109990            0           0           0  
      3.205107  3.234078 10.108708            0           0           0  
     12.807372  0.003266  6.838093            0           0           0  
      3.199332  0.003349  6.839264            0           0           0  
      1.599566  5.245662 11.397949            0           0           0  
      4.822756  5.242501 11.468614            0           0           0  
      1.597009  1.996175  8.106804            0           0           0  
      4.801003  1.995921  8.094503            0           0           0  
     12.802987  3.234923 12.559464            0           0           0  
      3.202114  3.229480 12.564252            0           0           0  
     12.807143  0.000104  9.305225            0           0           0  
      3.197879  0.000657  9.309289            0           0           0  
      1.599269  1.223066 11.398258            0           0           0  
      4.823855  1.223867 11.471070            0           0           0  
      1.597072  4.476263  8.105431            0           0           0  
      4.801016  4.477988  8.094049            0           0           0  
      8.005332  3.235121  4.852682            0           0           0  
     11.207465  3.235121  4.852682            0           0           0  
      8.005332  0.000000  1.617561            0           0           0  
     11.207465  0.000000  1.617561            0           0           0  
      6.404266  3.235121  1.617561            0           0           0  
      9.606399  3.235121  1.617561            0           0           0  
      6.404266  0.000000  4.852682            0           0           0  
      9.606399  0.000000  4.852682            0           0           0  
      8.001674  3.233246 11.293874            0           0           0  
     11.199090  3.232775 11.375395            0           0           0  
      7.999862  0.001072  8.113275            0           0           0  
     11.195885  0.001266  8.080601            0           0           0  
      6.398822  3.236508  8.095949            0           0           0  
      9.605959  3.235776  8.094601            0           0           0  
      6.472967  6.467348 11.407322            0           0           0  
      9.534013  6.467591 11.398979            0           0           0  
      6.404266  3.235121  3.613243            0           0           0  
      9.606399  3.235121  3.613243            0           0           0  
      6.404266  0.000000  0.378121            0           0           0  
      9.606399  0.000000  0.378121            0           0           0  
      8.005332  5.230803  4.852682            0           0           0  
     11.207465  5.230803  4.852682            0           0           0  
      8.005332  1.995682  1.617561            0           0           0  
     11.207465  1.995682  1.617561            0           0           0  
      6.404266  3.235121  6.092122            0           0           0  
      9.606399  3.235121  6.092122            0           0           0  
      6.404266  0.000000  2.857000            0           0           0  
      9.606399  0.000000  2.857000            0           0           0  
      8.005332  1.239440  4.852682            0           0           0  
     11.207465  1.239440  4.852682            0           0           0  
      8.005332  4.474561  1.617561            0           0           0  
     11.207465  4.474561  1.617561            0           0           0  
      6.378508  3.234275 10.074921            0           0           0  
      9.621429  3.230837 10.073557            0           0           0  
      6.406468  0.000451  6.855964            0           0           0  
      9.595651  0.000254  6.854395            0           0           0  
      8.001930  5.210188 11.069642            0           0           0  
     11.183314  5.241159 11.450476            0           0           0  
      7.999894  1.993799  8.084530            0           0           0  
     11.207813  1.995319  8.091003            0           0           0  
      6.441749  3.233996 12.512915            0           0           0  
      9.564351  3.234351 12.510071            0           0           0  
      6.347180  0.002220  9.342826            0           0           0  
      9.651575  0.002593  9.337628            0           0           0  
      8.002037  1.256903 11.079356            0           0           0  
     11.183803  1.224782 11.456014            0           0           0  
      8.000087  4.478393  8.089474            0           0           0  
     11.207340  4.477574  8.093753            0           0           0  
      8.864191  6.456035 13.164386     0.099949   -0.799469    0.065802  
      7.149630  6.454749 13.170810     0.008060   -0.584983    0.065262  
 
   6 f/i=   10.256368 THz    64.442658 2PiTHz  342.115588 cm-1    42.416942 meV
             X         Y         Z           dx          dy          dz
      1.601066  3.235121  4.852682            0           0           0  
      4.803199  3.235121  4.852682            0           0           0  
      1.601066  0.000000  1.617561            0           0           0  
      4.803199  0.000000  1.617561            0           0           0  
      0.000000  3.235121  1.617561            0           0           0  
      3.202133  3.235121  1.617561            0           0           0  
      0.000000  0.000000  4.852682            0           0           0  
      3.202133  0.000000  4.852682            0           0           0  
      1.599090  3.234148 11.372587            0           0           0  
      4.806131  3.233165 11.380663            0           0           0  
      1.598259  0.001406  8.075052            0           0           0  
      4.807774  0.001874  8.083733            0           0           0  
     12.806669  3.236356  8.110722            0           0           0  
      3.199809  3.236391  8.110845            0           0           0  
     12.781322  6.468825 11.265621            0           0           0  
      3.227443  6.469269 11.271221            0           0           0  
      0.000000  3.235121  3.613243            0           0           0  
      3.202133  3.235121  3.613243            0           0           0  
      0.000000  0.000000  0.378121            0           0           0  
      3.202133  0.000000  0.378121            0           0           0  
      1.601066  5.230803  4.852682            0           0           0  
      4.803199  5.230803  4.852682            0           0           0  
      1.601066  1.995682  1.617561            0           0           0  
      4.803199  1.995682  1.617561            0           0           0  
      0.000000  3.235121  6.092122            0           0           0  
      3.202133  3.235121  6.092122            0           0           0  
      0.000000  0.000000  2.857000            0           0           0  
      3.202133  0.000000  2.857000            0           0           0  
      1.601066  1.239440  4.852682            0           0           0  
      4.803199  1.239440  4.852682            0           0           0  
      1.601066  4.474561  1.617561            0           0           0  
      4.803199  4.474561  1.617561            0           0           0  
     12.802830  3.235104 10.109990            0           0           0  
      3.205107  3.234078 10.108708            0           0           0  
     12.807372  0.003266  6.838093            0           0           0  
      3.199332  0.003349  6.839264            0           0           0  
      1.599566  5.245662 11.397949            0           0           0  
      4.822756  5.242501 11.468614            0           0           0  
      1.597009  1.996175  8.106804            0           0           0  
      4.801003  1.995921  8.094503            0           0           0  
     12.802987  3.234923 12.559464            0           0           0  
      3.202114  3.229480 12.564252            0           0           0  
     12.807143  0.000104  9.305225            0           0           0  
      3.197879  0.000657  9.309289            0           0           0  
      1.599269  1.223066 11.398258            0           0           0  
      4.823855  1.223867 11.471070            0           0           0  
      1.597072  4.476263  8.105431            0           0           0  
      4.801016  4.477988  8.094049            0           0           0  
      8.005332  3.235121  4.852682            0           0           0  
     11.207465  3.235121  4.852682            0           0           0  
      8.005332  0.000000  1.617561            0           0           0  
     11.207465  0.000000  1.617561            0           0           0  
      6.404266  3.235121  1.617561            0           0           0  
      9.606399  3.235121  1.617561            0           0           0  
      6.404266  0.000000  4.852682            0           0           0  
      9.606399  0.000000  4.852682            0           0           0  
      8.001674  3.233246 11.293874            0           0           0  
     11.199090  3.232775 11.375395            0           0           0  
      7.999862  0.001072  8.113275            0           0           0  
     11.195885  0.001266  8.080601            0           0           0  
      6.398822  3.236508  8.095949            0           0           0  
      9.605959  3.235776  8.094601            0           0           0  
      6.472967  6.467348 11.407322            0           0           0  
      9.534013  6.467591 11.398979            0           0           0  
      6.404266  3.235121  3.613243            0           0           0  
      9.606399  3.235121  3.613243            0           0           0  
      6.404266  0.000000  0.378121            0           0           0  
      9.606399  0.000000  0.378121            0           0           0  
      8.005332  5.230803  4.852682            0           0           0  
     11.207465  5.230803  4.852682            0           0           0  
      8.005332  1.995682  1.617561            0           0           0  
     11.207465  1.995682  1.617561            0           0           0  
      6.404266  3.235121  6.092122            0           0           0  
      9.606399  3.235121  6.092122            0           0           0  
      6.404266  0.000000  2.857000            0           0           0  
      9.606399  0.000000  2.857000            0           0           0  
      8.005332  1.239440  4.852682            0           0           0  
     11.207465  1.239440  4.852682            0           0           0  
      8.005332  4.474561  1.617561            0           0           0  
     11.207465  4.474561  1.617561            0           0           0  
      6.378508  3.234275 10.074921            0           0           0  
      9.621429  3.230837 10.073557            0           0           0  
      6.406468  0.000451  6.855964            0           0           0  
      9.595651  0.000254  6.854395            0           0           0  
      8.001930  5.210188 11.069642            0           0           0  
     11.183314  5.241159 11.450476            0           0           0  
      7.999894  1.993799  8.084530            0           0           0  
     11.207813  1.995319  8.091003            0           0           0  
      6.441749  3.233996 12.512915            0           0           0  
      9.564351  3.234351 12.510071            0           0           0  
      6.347180  0.002220  9.342826            0           0           0  
      9.651575  0.002593  9.337628            0           0           0  
      8.002037  1.256903 11.079356            0           0           0  
     11.183803  1.224782 11.456014            0           0           0  
      8.000087  4.478393  8.089474            0           0           0  
     11.207340  4.477574  8.093753            0           0           0  
      8.864191  6.456035 13.164386     0.656155   -0.003495   -0.226638  
      7.149630  6.454749 13.170810    -0.684170    0.057871   -0.215978  
 
 Finite differences POTIM=  1.500000000000000E-002
  LATTYP: Found a simple orthorhombic cell.
 ALAT       =     6.4702430000
 B/A-ratio  =     1.9796060210
 C/A-ratio  =     4.0000000000
  
  Lattice vectors:
  
 A1 = (   0.0000000000,  -6.4702430000,   0.0000000000)
 A2 = ( -12.8085320000,   0.0000000000,   0.0000000000)
 A3 = (   0.0000000000,   0.0000000000, -25.8809720000)


Analysis of symmetry for initial positions (statically):
=====================================================================
 Subroutine PRICEL returns:
 Original cell was already a primitive cell.
 

 Routine SETGRP: Setting up the symmetry group for a 
 simple orthorhombic supercell.


 Subroutine GETGRP returns: Found  1 space group operations
 (whereof  1 operations were pure point group operations)
 out of a pool of  8 trial point group operations.


The static configuration has the point symmetry C_1 .


Analysis of symmetry for dynamics (positions and initial velocities):
=====================================================================
 Subroutine PRICEL returns:
 Original cell was already a primitive cell.
 

 Routine SETGRP: Setting up the symmetry group for a 
 simple orthorhombic supercell.


 Subroutine GETGRP returns: Found  1 space group operations
 (whereof  1 operations were pure point group operations)
 out of a pool of  8 trial point group operations.


The dynamic configuration has the point symmetry C_1 .


Analysis of constrained symmetry for selective dynamics:
=====================================================================
 Subroutine PRICEL returns:
 Original cell was already a primitive cell.
 

 Routine SETGRP: Setting up the symmetry group for a 
 simple orthorhombic supercell.


 Subroutine GETGRP returns: Found  1 space group operations
 (whereof  1 operations were pure point group operations)
 out of a pool of  8 trial point group operations.


The constrained configuration has the point symmetry C_1 .


Analysis of structural, dynamic, and magnetic symmetry:
=====================================================================
 Subroutine PRICEL returns:
 Original cell was already a primitive cell.
 

 Routine SETGRP: Setting up the symmetry group for a 
 simple orthorhombic supercell.


 Subroutine GETGRP returns: Found  1 space group operations
 (whereof  1 operations were pure point group operations)
 out of a pool of  8 trial point group operations.


The magnetic configuration has the point symmetry C_1 .


 Subroutine INISYM returns: Found  1 space group operations
 (whereof  1 operations are pure point group operations),
 and found     1 'primitive' translations

 
 KPOINTS: Automatic mesh                          

Automatic generation of k-mesh.
Space group operators:
 irot       det(A)        alpha          n_x          n_y          n_z        tau_x        tau_y        tau_z
    1     1.000000     0.000001     1.000000     0.000000     0.000000     0.000000     0.000000     0.000000
 
 Subroutine IBZKPT returns following result:
 ===========================================
 
 Found      5 irreducible k-points:
 
 Following reciprocal coordinates:
            Coordinates               Weight
  0.000000  0.000000  0.000000      1.000000
  0.333333  0.000000  0.000000      2.000000
  0.000000  0.333333  0.000000      2.000000
  0.333333  0.333333  0.000000      2.000000
 -0.333333  0.333333  0.000000      2.000000
 
 Following cartesian coordinates:
            Coordinates               Weight
  0.000000  0.000000  0.000000      1.000000
  0.026024  0.000000  0.000000      2.000000
  0.000000  0.051518  0.000000      2.000000
  0.026024  0.051518  0.000000      2.000000
 -0.026024  0.051518  0.000000      2.000000
 
     LOOP+:  cpu time  113.2779: real time  113.6873
 vacuum level on the upper side and lower side of the slab         6.381         5.667
    4ORBIT:  cpu time    0.0000: real time    0.0000

 total amount of memory used by VASP MPI-rank0   191885. kBytes
=======================================================================

   base      :      30000. kBytes
   nonlr-proj:      19666. kBytes
   fftplans  :       4196. kBytes
   grid      :      37119. kBytes
   one-center:       3048. kBytes
   wavefun   :      97856. kBytes
 
  
  
 General timing and accounting informations for this job:
 ========================================================
  
                  Total CPU time used (sec):     7960.125
                            User time (sec):     7854.522
                          System time (sec):      105.602
                         Elapsed time (sec):     7987.287
  
                   Maximum memory used (kb):      444760.
                   Average memory used (kb):           0.
  
                          Minor page faults:      4526977
                          Major page faults:          174
                 Voluntary context switches:        20556
