 vasp.5.4.4.18Apr17-6-g9f103f2a35 (build Feb 25 2019 10:51:38) complex          
  
 executed on             LinuxIFC date 2023.03.14  11:38:41
 running on   40 total cores
 distrk:  each k-point on   40 cores,    1 groups
 distr:  one band on NCORES_PER_BAND=  10 cores,    4 groups


--------------------------------------------------------------------------------------------------------


 INCAR:
 POTCAR:    PAW_PBE Ir 06Sep2000                  
 POTCAR:    PAW_PBE O 08Apr2002                   
 POTCAR:    PAW_PBE Ir 06Sep2000                  
 POTCAR:    PAW_PBE O 08Apr2002                   
 POTCAR:    PAW_PBE Ir 06Sep2000                  
   VRHFIN =Ir: s1d8                                                             
   LEXCH  = PE                                                                  
   EATOM  =   560.1833 eV,   41.1723 Ry                                         
                                                                                
   TITEL  = PAW_PBE Ir 06Sep2000                                                
   LULTRA =        F    use ultrasoft PP ?                                      
   IUNSCR =        1    unscreen: 0-lin 1-nonlin 2-no                           
   RPACOR =    2.250    partial core radius                                     
   POMASS =  192.220; ZVAL   =    9.000    mass and valenz                      
   RCORE  =    2.600    outmost cutoff radius                                   
   RWIGS  =    2.690; RWIGS  =    1.423    wigner-seitz radius (au A)           
   ENMAX  =  210.864; ENMIN  =  158.148 eV                                      
   RCLOC  =    1.857    cutoff for local pot                                    
   LCOR   =        T    correct aug charges                                     
   LPAW   =        T    paw PP                                                  
   EAUG   =  318.962                                                            
   DEXC   =    0.000                                                            
   RMAX   =    2.667    core radius for proj-oper                               
   RAUG   =    1.300    factor for augmentation sphere                          
   RDEP   =    2.748    radius for radial grids                                 
   RDEPT  =    2.300    core radius for aug-charge                              
                                                                                
   Atomic configuration                                                         
   16 entries                                                                   
     n  l   j            E        occ.                                          
     1  0  0.50    -76100.0449   2.0000                                         
     2  0  0.50    -13308.1683   2.0000                                         
     2  1  1.50    -11558.0021   6.0000                                         
     3  0  0.50     -3110.7274   2.0000                                         
     3  1  1.50     -2599.2109   6.0000                                         
     3  2  2.50     -2037.1515  10.0000                                         
     4  0  0.50      -661.6001   2.0000                                         
     4  1  1.50      -493.8981   6.0000                                         
     4  2  2.50      -288.1909  10.0000                                         
     4  3  3.50       -59.5718  14.0000                                         
     5  0  0.50       -95.3879   2.0000                                         
     5  1  1.50       -52.2747   6.0000                                         
     5  2  2.50        -5.4180   8.0000                                         
     6  0  0.50        -5.5479   1.0000                                         
     6  1  1.50        -6.8029   0.0000                                         
     5  3  2.50        -1.3606   0.0000                                         
   Description                                                                  
     l       E           TYP  RCUT    TYP  RCUT                                 
     2     -5.4179967     23  2.600                                             
     2     -6.7785793     23  2.600                                             
     0     -5.5478636     23  2.600                                             
     0      2.2542272     23  2.600                                             
     1     -2.7211652     23  2.600                                             
     1     20.4087390     23  2.600                                             
  local pseudopotential read in
  partial core-charges read in
  partial kinetic energy density read in
  atomic valenz-charges read in
  non local Contribution for L=           2  read in
    real space projection operators read in
  non local Contribution for L=           2  read in
    real space projection operators read in
  non local Contribution for L=           0  read in
    real space projection operators read in
  non local Contribution for L=           0  read in
    real space projection operators read in
  non local Contribution for L=           1  read in
    real space projection operators read in
  non local Contribution for L=           1  read in
    real space projection operators read in
    PAW grid and wavefunctions read in
 
   number of l-projection  operators is LMAX  =           6
   number of lm-projection operators is LMMAX =          18
 
 POTCAR:    PAW_PBE O 08Apr2002                   
   VRHFIN =O: s2p4                                                              
   LEXCH  = PE                                                                  
   EATOM  =   432.3788 eV,   31.7789 Ry                                         
                                                                                
   TITEL  = PAW_PBE O 08Apr2002                                                 
   LULTRA =        F    use ultrasoft PP ?                                      
   IUNSCR =        1    unscreen: 0-lin 1-nonlin 2-no                           
   RPACOR =    1.200    partial core radius                                     
   POMASS =   16.000; ZVAL   =    6.000    mass and valenz                      
   RCORE  =    1.520    outmost cutoff radius                                   
   RWIGS  =    1.550; RWIGS  =    0.820    wigner-seitz radius (au A)           
   ENMAX  =  400.000; ENMIN  =  300.000 eV                                      
   ICORE  =        2    local potential                                         
   LCOR   =        T    correct aug charges                                     
   LPAW   =        T    paw PP                                                  
   EAUG   =  605.392                                                            
   DEXC   =    0.000                                                            
   RMAX   =    1.553    core radius for proj-oper                               
   RAUG   =    1.300    factor for augmentation sphere                          
   RDEP   =    1.550    radius for radial grids                                 
   RDEPT  =    1.329    core radius for aug-charge                              
                                                                                
   Atomic configuration                                                         
    4 entries                                                                   
     n  l   j            E        occ.                                          
     1  0  0.50      -514.6923   2.0000                                         
     2  0  0.50       -23.9615   2.0000                                         
     2  1  0.50        -9.0305   4.0000                                         
     3  2  1.50        -9.5241   0.0000                                         
   Description                                                                  
     l       E           TYP  RCUT    TYP  RCUT                                 
     0    -23.9615318     23  1.200                                             
     0     -9.5240782     23  1.200                                             
     1     -9.0304911     23  1.520                                             
     1      8.1634956     23  1.520                                             
     2     -9.5240782      7  1.500                                             
  local pseudopotential read in
  partial core-charges read in
  partial kinetic energy density read in
  kinetic energy density of atom read in
  atomic valenz-charges read in
  non local Contribution for L=           0  read in
    real space projection operators read in
  non local Contribution for L=           0  read in
    real space projection operators read in
  non local Contribution for L=           1  read in
    real space projection operators read in
  non local Contribution for L=           1  read in
    real space projection operators read in
    PAW grid and wavefunctions read in
 
   number of l-projection  operators is LMAX  =           4
   number of lm-projection operators is LMMAX =           8
 
 POTCAR:    PAW_PBE Ir 06Sep2000                  
   VRHFIN =Ir: s1d8                                                             
   LEXCH  = PE                                                                  
   EATOM  =   560.1833 eV,   41.1723 Ry                                         
                                                                                
   TITEL  = PAW_PBE Ir 06Sep2000                                                
   LULTRA =        F    use ultrasoft PP ?                                      
   IUNSCR =        1    unscreen: 0-lin 1-nonlin 2-no                           
   RPACOR =    2.250    partial core radius                                     
   POMASS =  192.220; ZVAL   =    9.000    mass and valenz                      
   RCORE  =    2.600    outmost cutoff radius                                   
   RWIGS  =    2.690; RWIGS  =    1.423    wigner-seitz radius (au A)           
   ENMAX  =  210.864; ENMIN  =  158.148 eV                                      
   RCLOC  =    1.857    cutoff for local pot                                    
   LCOR   =        T    correct aug charges                                     
   LPAW   =        T    paw PP                                                  
   EAUG   =  318.962                                                            
   DEXC   =    0.000                                                            
   RMAX   =    2.667    core radius for proj-oper                               
   RAUG   =    1.300    factor for augmentation sphere                          
   RDEP   =    2.748    radius for radial grids                                 
   RDEPT  =    2.300    core radius for aug-charge                              
                                                                                
   Atomic configuration                                                         
   16 entries                                                                   
     n  l   j            E        occ.                                          
     1  0  0.50    -76100.0449   2.0000                                         
     2  0  0.50    -13308.1683   2.0000                                         
     2  1  1.50    -11558.0021   6.0000                                         
     3  0  0.50     -3110.7274   2.0000                                         
     3  1  1.50     -2599.2109   6.0000                                         
     3  2  2.50     -2037.1515  10.0000                                         
     4  0  0.50      -661.6001   2.0000                                         
     4  1  1.50      -493.8981   6.0000                                         
     4  2  2.50      -288.1909  10.0000                                         
     4  3  3.50       -59.5718  14.0000                                         
     5  0  0.50       -95.3879   2.0000                                         
     5  1  1.50       -52.2747   6.0000                                         
     5  2  2.50        -5.4180   8.0000                                         
     6  0  0.50        -5.5479   1.0000                                         
     6  1  1.50        -6.8029   0.0000                                         
     5  3  2.50        -1.3606   0.0000                                         
   Description                                                                  
     l       E           TYP  RCUT    TYP  RCUT                                 
     2     -5.4179967     23  2.600                                             
     2     -6.7785793     23  2.600                                             
     0     -5.5478636     23  2.600                                             
     0      2.2542272     23  2.600                                             
     1     -2.7211652     23  2.600                                             
     1     20.4087390     23  2.600                                             
  local pseudopotential read in
  partial core-charges read in
  partial kinetic energy density read in
  atomic valenz-charges read in
  non local Contribution for L=           2  read in
    real space projection operators read in
  non local Contribution for L=           2  read in
    real space projection operators read in
  non local Contribution for L=           0  read in
    real space projection operators read in
  non local Contribution for L=           0  read in
    real space projection operators read in
  non local Contribution for L=           1  read in
    real space projection operators read in
  non local Contribution for L=           1  read in
    real space projection operators read in
    PAW grid and wavefunctions read in
 
   number of l-projection  operators is LMAX  =           6
   number of lm-projection operators is LMMAX =          18
 
 POTCAR:    PAW_PBE O 08Apr2002                   
   VRHFIN =O: s2p4                                                              
   LEXCH  = PE                                                                  
   EATOM  =   432.3788 eV,   31.7789 Ry                                         
                                                                                
   TITEL  = PAW_PBE O 08Apr2002                                                 
   LULTRA =        F    use ultrasoft PP ?                                      
   IUNSCR =        1    unscreen: 0-lin 1-nonlin 2-no                           
   RPACOR =    1.200    partial core radius                                     
   POMASS =   16.000; ZVAL   =    6.000    mass and valenz                      
   RCORE  =    1.520    outmost cutoff radius                                   
   RWIGS  =    1.550; RWIGS  =    0.820    wigner-seitz radius (au A)           
   ENMAX  =  400.000; ENMIN  =  300.000 eV                                      
   ICORE  =        2    local potential                                         
   LCOR   =        T    correct aug charges                                     
   LPAW   =        T    paw PP                                                  
   EAUG   =  605.392                                                            
   DEXC   =    0.000                                                            
   RMAX   =    1.553    core radius for proj-oper                               
   RAUG   =    1.300    factor for augmentation sphere                          
   RDEP   =    1.550    radius for radial grids                                 
   RDEPT  =    1.329    core radius for aug-charge                              
                                                                                
   Atomic configuration                                                         
    4 entries                                                                   
     n  l   j            E        occ.                                          
     1  0  0.50      -514.6923   2.0000                                         
     2  0  0.50       -23.9615   2.0000                                         
     2  1  0.50        -9.0305   4.0000                                         
     3  2  1.50        -9.5241   0.0000                                         
   Description                                                                  
     l       E           TYP  RCUT    TYP  RCUT                                 
     0    -23.9615318     23  1.200                                             
     0     -9.5240782     23  1.200                                             
     1     -9.0304911     23  1.520                                             
     1      8.1634956     23  1.520                                             
     2     -9.5240782      7  1.500                                             
  local pseudopotential read in
  partial core-charges read in
  partial kinetic energy density read in
  kinetic energy density of atom read in
  atomic valenz-charges read in
  non local Contribution for L=           0  read in
    real space projection operators read in
  non local Contribution for L=           0  read in
    real space projection operators read in
  non local Contribution for L=           1  read in
    real space projection operators read in
  non local Contribution for L=           1  read in
    real space projection operators read in
    PAW grid and wavefunctions read in
 
   number of l-projection  operators is LMAX  =           4
   number of lm-projection operators is LMMAX =           8
 
 Optimization of the real space projectors (new method)

 maximal supplied QI-value         = 14.36
 optimisation between [QCUT,QGAM] = [ 11.35, 22.84] = [ 36.05,146.02] Ry 
 Optimized for a Real-space Cutoff    1.52 Angstroem

   l    n(q)    QCUT    max X(q) W(low)/X(q) W(high)/X(q)  e(spline) 
   2      9    11.346   134.116    0.47E-03    0.13E-03    0.92E-06
   2      9    11.346   130.192    0.47E-03    0.13E-03    0.92E-06
   0     10    11.346    60.310    0.74E-04    0.13E-03    0.69E-06
   0     10    11.346    39.218    0.68E-04    0.12E-03    0.65E-06
   1     10    11.346    18.439    0.15E-03    0.34E-04    0.20E-06
   1     10    11.346    12.760    0.12E-03    0.31E-04    0.16E-06
 Optimization of the real space projectors (new method)

 maximal supplied QI-value         = 24.76
 optimisation between [QCUT,QGAM] = [ 11.39, 22.77] = [ 36.31,145.25] Ry 
 Optimized for a Real-space Cutoff    1.00 Angstroem

   l    n(q)    QCUT    max X(q) W(low)/X(q) W(high)/X(q)  e(spline) 
   0      7    11.387    20.381    0.39E-03    0.13E-02    0.15E-06
   0      7    11.387    15.268    0.42E-03    0.14E-02    0.17E-06
   1      6    11.387     5.964    0.41E-03    0.11E-02    0.17E-06
   1      6    11.387     5.382    0.39E-03    0.87E-03    0.15E-06
 Optimization of the real space projectors (new method)

 maximal supplied QI-value         = 14.36
 optimisation between [QCUT,QGAM] = [ 11.35, 22.84] = [ 36.05,146.02] Ry 
 Optimized for a Real-space Cutoff    1.52 Angstroem

   l    n(q)    QCUT    max X(q) W(low)/X(q) W(high)/X(q)  e(spline) 
   2      9    11.346   134.116    0.47E-03    0.13E-03    0.92E-06
   2      9    11.346   130.192    0.47E-03    0.13E-03    0.92E-06
   0     10    11.346    60.310    0.74E-04    0.13E-03    0.69E-06
   0     10    11.346    39.218    0.68E-04    0.12E-03    0.65E-06
   1     10    11.346    18.439    0.15E-03    0.34E-04    0.20E-06
   1     10    11.346    12.760    0.12E-03    0.31E-04    0.16E-06
 Optimization of the real space projectors (new method)

 maximal supplied QI-value         = 24.76
 optimisation between [QCUT,QGAM] = [ 11.39, 22.77] = [ 36.31,145.25] Ry 
 Optimized for a Real-space Cutoff    1.00 Angstroem

   l    n(q)    QCUT    max X(q) W(low)/X(q) W(high)/X(q)  e(spline) 
   0      7    11.387    20.381    0.39E-03    0.13E-02    0.15E-06
   0      7    11.387    15.268    0.42E-03    0.14E-02    0.17E-06
   1      6    11.387     5.964    0.41E-03    0.11E-02    0.17E-06
   1      6    11.387     5.382    0.39E-03    0.87E-03    0.15E-06

 ----------------------------------------------------------------------------- 
|                                                                             |
|  ADVICE TO THIS USER RUNNING 'VASP/VAMP'   (HEAR YOUR MASTER'S VOICE ...):  |
|                                                                             |
|      You enforced a specific xc-type in the INCAR file,                     |
|      a different type was found on the POTCAR file                          |
|          I HOPE YOU KNOW, WHAT YOU ARE  DOING                               |
|                                                                             |
 ----------------------------------------------------------------------------- 

  PAW_PBE Ir 06Sep2000                  :
 energy of atom  1       EATOM= -560.1833
 kinetic energy error for atom=    0.0018 (will be added to EATOM!!)
  PAW_PBE O 08Apr2002                   :
 energy of atom  2       EATOM= -432.3788
 kinetic energy error for atom=    0.0224 (will be added to EATOM!!)
  PAW_PBE Ir 06Sep2000                  :
 energy of atom  3       EATOM= -560.1833
 kinetic energy error for atom=    0.0018 (will be added to EATOM!!)
  PAW_PBE O 08Apr2002                   :
 energy of atom  4       EATOM= -432.3788
 kinetic energy error for atom=    0.0224 (will be added to EATOM!!)
 
 
 POSCAR: Ir  O Ir  O                             
  positions in cartesian coordinates
  No initial velocities read in
 exchange correlation table for  LEXCH =        9
   RHO(1)=    0.500       N(1)  =     2000
   RHO(2)=  100.500       N(2)  =     4000

 VTST: version 3.2, (02/03/18)

 CHAIN: initializing optimizer
 
 OPT: Using VASP Conjugate-Gradient optimizer
 CHAIN: Read ICHAIN            0
 
 POSCAR: Ir  O Ir  O                             
  positions in cartesian coordinates
  No initial velocities read in
 


--------------------------------------------------------------------------------------------------------


 ion  position               nearest neighbor table
   1  0.125  0.500  0.188-  21 2.00  29 2.00  17 2.02  25 2.02  26 2.02  18 2.02   2 3.20  50 3.20

   2  0.375  0.500  0.188-  22 2.00  30 2.00  26 2.02  18 2.02  65 2.02  73 2.02   1 3.20  49 3.20

   3  0.125  0.000  0.062-  23 2.00  31 2.00  19 2.02  27 2.02  28 2.02  20 2.02   4 3.20  52 3.20

   4  0.375  0.000  0.062-  24 2.00  32 2.00  28 2.02  20 2.02  67 2.02  75 2.02   3 3.20  51 3.20

   5  0.000  0.500  0.062-  17 2.00  23 2.02  31 2.02  72 2.02  80 2.02   6 3.20  54 3.20
   6  0.250  0.500  0.062-  18 2.00  23 2.02  24 2.02  31 2.02  32 2.02   5 3.20  53 3.20
   7  0.000  0.000  0.188-  35 1.99  27 2.00  29 2.02  21 2.02  70 2.02  78 2.02   8 3.20  56 3.20

   8  0.250  0.000  0.188-  36 1.99  28 2.00  21 2.02  29 2.02  30 2.02  22 2.02   7 3.20  55 3.20

   9  0.125  0.500  0.439-  41 2.00  42 2.00  37 2.01  45 2.01  34 2.04  33 2.05  58 3.20  10 3.20

  10  0.375  0.500  0.438-  89 1.99  38 2.00  46 2.00  42 2.00  34 2.04  81 2.04  57 3.20   9 3.20

  11  0.125  0.000  0.312-  39 2.00  47 2.00  43 2.02  44 2.02  36 2.02  35 2.02  60 3.22  12 3.22

  12  0.377  0.000  0.313-  40 1.99  48 1.99  83 2.01  90 2.02  44 2.02  36 2.04  59 3.18  11 3.22

  13  1.000  0.500  0.313-  33 1.99  25 2.01  39 2.02  47 2.02  88 2.03  95 2.03  62 3.20  14 3.20

  14  0.250  0.500  0.313-  34 1.99  26 2.01  39 2.03  47 2.03  40 2.03  48 2.03  61 3.20  13 3.20

  15  0.000  0.000  0.435-  43 1.95  86 2.02  93 2.02  37 2.02  45 2.02  16 3.20  64 3.21
  16  0.250  0.000  0.435-  44 1.95  46 2.02  38 2.02  45 2.02  37 2.02  15 3.20  63 3.21
  17  0.000  0.500  0.140-   5 2.00   1 2.02  50 2.02
  18  0.250  0.500  0.140-   6 2.00   2 2.02   1 2.02
  19  0.000  0.000  0.015-   3 2.02  52 2.02
  20  0.250  0.000  0.015-   3 2.02   4 2.02
  21  0.125  0.808  0.188-   1 2.00   7 2.02   8 2.02
  22  0.375  0.808  0.188-   2 2.00   8 2.02  55 2.02
  23  0.125  0.308  0.062-   3 2.00   5 2.02   6 2.02
  24  0.375  0.308  0.062-   4 2.00   6 2.02  53 2.02
  25  0.000  0.500  0.235-  13 2.01   1 2.02  50 2.02
  26  0.250  0.500  0.235-  14 2.01   2 2.02   1 2.02
  27  0.000  0.000  0.110-   7 2.00   3 2.02  52 2.02
  28  0.250  0.000  0.110-   8 2.00   4 2.02   3 2.02
  29  0.125  0.192  0.188-   1 2.00   7 2.02   8 2.02
  30  0.375  0.192  0.188-   2 2.00   8 2.02  55 2.02
  31  0.125  0.692  0.062-   3 2.00   5 2.02   6 2.02
  32  0.375  0.692  0.062-   4 2.00   6 2.02  53 2.02
  33  0.000  0.500  0.390-  13 1.99  58 2.04   9 2.05
  34  0.250  0.500  0.390-  14 1.99  10 2.04   9 2.04
  35  1.000  0.000  0.264-   7 1.99  11 2.02  60 2.04
  36  0.250  0.000  0.264-   8 1.99  11 2.02  12 2.04
  37  0.125  0.810  0.440-   9 2.01  15 2.02  16 2.02
  38  0.375  0.808  0.438-  10 2.00  16 2.02  63 2.03
  39  0.125  0.308  0.313-  11 2.00  13 2.02  14 2.03
  40  0.375  0.308  0.313-  12 1.99  61 2.02  14 2.03
  41  1.000  0.500  0.485-   9 2.00  58 2.00
  42  0.251  0.500  0.485-  10 2.00   9 2.00
  43  1.000  0.000  0.359-  15 1.95  11 2.02  60 2.02
  44  0.250  0.000  0.359-  16 1.95  11 2.02  12 2.02
  45  0.125  0.190  0.440-   9 2.01  15 2.02  16 2.02
  46  0.375  0.192  0.438-  10 2.00  16 2.02  63 2.03
  47  0.125  0.692  0.313-  11 2.00  13 2.02  14 2.03
  48  0.375  0.692  0.313-  12 1.99  61 2.02  14 2.03
  49  0.625  0.500  0.188-  69 2.00  77 2.00  65 2.02  73 2.02  74 2.02  66 2.02   2 3.20  50 3.20

  50  0.875  0.500  0.188-  70 2.00  78 2.00  66 2.02  17 2.02  74 2.02  25 2.02   1 3.20  49 3.20

  51  0.625  0.000  0.062-  71 2.00  79 2.00  67 2.02  75 2.02  76 2.02  68 2.02   4 3.20  52 3.20

  52  0.875  0.000  0.062-  72 2.00  80 2.00  68 2.02  19 2.02  76 2.02  27 2.02   3 3.20  51 3.20

  53  0.500  0.500  0.062-  65 2.00  32 2.02  24 2.02  71 2.02  79 2.02  54 3.20   6 3.20
  54  0.750  0.500  0.062-  66 2.00  71 2.02  72 2.02  79 2.02  80 2.02  53 3.20   5 3.20
  55  0.500  0.000  0.188-  75 2.00  83 2.00  69 2.02  22 2.02  77 2.02  30 2.02   8 3.20  56 3.20

  56  0.750  0.000  0.188-  76 2.00  84 2.00  69 2.02  77 2.02  78 2.02  70 2.02   7 3.20  55 3.20

  57  0.625  0.500  0.438-  89 1.99  85 2.00  92 2.00  82 2.03  81 2.03  10 3.20  58 3.20
  58  0.875  0.500  0.439-  86 2.00  93 2.00  41 2.00  33 2.04  82 2.04  57 3.20   9 3.20
  59  0.625  0.000  0.313-  87 1.99  94 1.99  83 2.03  84 2.03  90 2.03  91 2.03  12 3.18  60 3.18

  60  0.873  0.000  0.313-  88 1.99  95 1.99  84 2.01  91 2.02  43 2.02  35 2.04  59 3.18  11 3.22

  61  0.500  0.500  0.313-  81 1.98  73 2.00  40 2.02  48 2.02  87 2.03  94 2.03  62 3.20  14 3.20

  62  0.750  0.500  0.313-  82 1.99  74 2.00  88 2.02  95 2.02  94 2.03  87 2.03  61 3.20  13 3.20

  63  0.500  0.000  0.442-  97 1.80  92 2.03  85 2.03  46 2.03  38 2.03  90 2.10  64 3.20  16 3.21

  64  0.750  0.000  0.442-  96 1.80  92 2.03  85 2.03  93 2.04  86 2.04  91 2.10  63 3.20  15 3.21

  65  0.500  0.500  0.140-  53 2.00  49 2.02   2 2.02
  66  0.750  0.500  0.140-  54 2.00  50 2.02  49 2.02
  67  0.500  0.000  0.015-   4 2.02  51 2.02
  68  0.750  0.000  0.015-  51 2.02  52 2.02
  69  0.625  0.808  0.188-  49 2.00  55 2.02  56 2.02
  70  0.875  0.808  0.188-  50 2.00   7 2.02  56 2.02
  71  0.625  0.308  0.062-  51 2.00  53 2.02  54 2.02
  72  0.875  0.308  0.062-  52 2.00   5 2.02  54 2.02
  73  0.500  0.500  0.235-  61 2.00  49 2.02   2 2.02
  74  0.750  0.500  0.235-  62 2.00  50 2.02  49 2.02
  75  0.500  0.000  0.110-  55 2.00  51 2.02   4 2.02
  76  0.750  0.000  0.110-  56 2.00  52 2.02  51 2.02
  77  0.625  0.192  0.188-  49 2.00  55 2.02  56 2.02
  78  0.875  0.192  0.188-  50 2.00   7 2.02  56 2.02
  79  0.625  0.692  0.062-  51 2.00  53 2.02  54 2.02
  80  0.875  0.692  0.062-  52 2.00   5 2.02  54 2.02
  81  0.500  0.500  0.389-  61 1.98  57 2.03  10 2.04
  82  0.750  0.500  0.390-  62 1.99  57 2.03  58 2.04
  83  0.500  0.000  0.265-  55 2.00  12 2.01  59 2.03
  84  0.750  0.000  0.265-  56 2.00  60 2.01  59 2.03
  85  0.625  0.809  0.436-  57 2.00  63 2.03  64 2.03
  86  0.876  0.808  0.439-  58 2.00  15 2.02  64 2.04
  87  0.625  0.308  0.313-  59 1.99  61 2.03  62 2.03
  88  0.875  0.308  0.313-  60 1.99  62 2.02  13 2.03
  89  0.501  0.500  0.484-  57 1.99  10 1.99
  90  0.500  0.000  0.361-  12 2.02  59 2.03  63 2.10
  91  0.750  0.000  0.361-  60 2.02  59 2.03  64 2.10
  92  0.625  0.191  0.436-  57 2.00  63 2.03  64 2.03
  93  0.876  0.192  0.439-  58 2.00  15 2.02  64 2.04
  94  0.625  0.692  0.313-  59 1.99  61 2.03  62 2.03
  95  0.875  0.692  0.313-  60 1.99  62 2.02  13 2.03
  96  0.749  0.000  0.512-  64 1.80
  97  0.502  0.000  0.511-  63 1.80
 
  LATTYP: Found a simple orthorhombic cell.
 ALAT       =     6.4702430000
 B/A-ratio  =     1.9796060210
 C/A-ratio  =     4.0000000000
  
  Lattice vectors:
  
 A1 = (   0.0000000000,  -6.4702430000,   0.0000000000)
 A2 = ( -12.8085320000,   0.0000000000,   0.0000000000)
 A3 = (   0.0000000000,   0.0000000000, -25.8809720000)


Analysis of symmetry for initial positions (statically):
=====================================================================
 Subroutine PRICEL returns:
 Original cell was already a primitive cell.
 

 Routine SETGRP: Setting up the symmetry group for a 
 simple orthorhombic supercell.


 Subroutine GETGRP returns: Found  2 space group operations
 (whereof  2 operations were pure point group operations)
 out of a pool of  8 trial point group operations.


The static configuration has the point symmetry C_1h.


Analysis of symmetry for dynamics (positions and initial velocities):
=====================================================================
 Subroutine PRICEL returns:
 Original cell was already a primitive cell.
 

 Routine SETGRP: Setting up the symmetry group for a 
 simple orthorhombic supercell.


 Subroutine GETGRP returns: Found  2 space group operations
 (whereof  2 operations were pure point group operations)
 out of a pool of  8 trial point group operations.


The dynamic configuration has the point symmetry C_1h.


Analysis of constrained symmetry for selective dynamics:
=====================================================================
 Subroutine PRICEL returns:
 Original cell was already a primitive cell.
 

 Routine SETGRP: Setting up the symmetry group for a 
 simple orthorhombic supercell.


 Subroutine GETGRP returns: Found  2 space group operations
 (whereof  2 operations were pure point group operations)
 out of a pool of  8 trial point group operations.


The constrained configuration has the point symmetry C_1h.


Analysis of structural, dynamic, and magnetic symmetry:
=====================================================================
 Subroutine PRICEL returns:
 Original cell was already a primitive cell.
 

 Routine SETGRP: Setting up the symmetry group for a 
 simple orthorhombic supercell.


 Subroutine GETGRP returns: Found  2 space group operations
 (whereof  2 operations were pure point group operations)
 out of a pool of  8 trial point group operations.


The magnetic configuration has the point symmetry C_1h.


 Subroutine INISYM returns: Found  2 space group operations
 (whereof  2 operations are pure point group operations),
 and found     1 'primitive' translations

 
 
 KPOINTS: Automatic mesh                          

Automatic generation of k-mesh.
Space group operators:
 irot       det(A)        alpha          n_x          n_y          n_z        tau_x        tau_y        tau_z
    1     1.000000     0.000001     1.000000     0.000000     0.000000     0.000000     0.000000     0.000000
    2    -1.000000   180.000000     0.000000     1.000000     0.000000     0.000000     0.000000     0.000000
 
 Subroutine IBZKPT returns following result:
 ===========================================
 
 Found      4 irreducible k-points:
 
 Following reciprocal coordinates:
            Coordinates               Weight
  0.000000  0.000000  0.000000      1.000000
  0.333333  0.000000  0.000000      2.000000
  0.000000  0.333333  0.000000      2.000000
  0.333333  0.333333  0.000000      4.000000
 
 Following cartesian coordinates:
            Coordinates               Weight
  0.000000  0.000000  0.000000      1.000000
  0.026024  0.000000  0.000000      2.000000
  0.000000  0.051518  0.000000      2.000000
  0.026024  0.051518  0.000000      4.000000
 


--------------------------------------------------------------------------------------------------------




 Dimension of arrays:
   k-points           NKPTS =      4   k-points in BZ     NKDIM =      4   number of bands    NBANDS=    436
   number of dos      NEDOS =    301   number of ions     NIONS =     97
   non local maximal  LDIM  =      6   non local SUM 2l+1 LMDIM =     18
   total plane-waves  NPLWV = 362880
   max r-space proj   IRMAX =   2532   max aug-charges    IRDMAX=  12432
   dimension x,y,z NGX =    70 NGY =   36 NGZ =  144
   dimension x,y,z NGXF=   140 NGYF=   72 NGZF=  288
   support grid    NGXF=   140 NGYF=   72 NGZF=  288
   ions per type =              16  32  16  33
   NGX,Y,Z   is equivalent  to a cutoff of   9.09,  9.25,  9.25 a.u.
   NGXF,Y,Z  is equivalent  to a cutoff of  18.17, 18.50, 18.50 a.u.

 SYSTEM =  unknown system                          
 POSCAR =  Ir  O Ir  O                             

 Startparameter for this run:
   NWRITE =      2    write-flag & timer
   PREC   = normal    normal or accurate (medium, high low for compatibility)
   ISTART =      0    job   : 0-new  1-cont  2-samecut
   ICHARG =      2    charge: 1-file 2-atom 10-const
   ISPIN  =      2    spin polarized calculation?
   LNONCOLLINEAR =      F non collinear calculations
   LSORBIT =      F    spin-orbit coupling
   INIWAV =      1    electr: 0-lowe 1-rand  2-diag
   LASPH  =      F    aspherical Exc in radial PAW
   METAGGA=      F    non-selfconsistent MetaGGA calc.

 Electronic Relaxation 1
   ENCUT  =  500.0 eV  36.75 Ry    6.06 a.u.  23.35 11.80 47.19*2*pi/ulx,y,z
   ENINI  =  500.0     initial cutoff
   ENAUG  =  605.4 eV  augmentation charge cutoff
   NELM   =     60;   NELMIN=  4; NELMDL= -5     # of ELM steps 
   EDIFF  = 0.1E-04   stopping-criterion for ELM
   LREAL  =      T    real-space projection
   NLSPLINE    = F    spline interpolate recip. space projectors
   LCOMPAT=      F    compatible to vasp.4.4
   GGA_COMPAT  = T    GGA compatible to vasp.4.4-vasp.4.6
   LMAXPAW     = -100 max onsite density
   LMAXMIX     =    2 max onsite mixed and CHGCAR
   VOSKOWN=      0    Vosko Wilk Nusair interpolation
   ROPT   =   -0.00050  -0.00050  -0.00050  -0.00050
 Ionic relaxation
   EDIFFG = -.5E-01   stopping-criterion for IOM
   NSW    =    500    number of steps for IOM
   NBLOCK =      1;   KBLOCK =    500    inner block; outer block 
   IBRION =      2    ionic relax: 0-MD 1-quasi-New 2-CG
   NFREE  =      1    steps in history (QN), initial steepest desc. (CG)
   ISIF   =      2    stress and relaxation
   IWAVPR =     11    prediction:  0-non 1-charg 2-wave 3-comb
   ISYM   =      2    0-nonsym 1-usesym 2-fastsym
   LCORR  =      T    Harris-Foulkes like correction to forces

   POTIM  = 0.5000    time-step for ionic-motion
   TEIN   =    0.0    initial temperature
   TEBEG  =    0.0;   TEEND  =   0.0 temperature during run
   SMASS  =  -3.00    Nose mass-parameter (am)
   estimated Nose-frequenzy (Omega)   =  0.10E-29 period in steps =****** mass=  -0.375E-26a.u.
   SCALEE = 1.0000    scale energy and forces
   NPACO  =    256;   APACO  = 16.0  distance and # of slots for P.C.
   PSTRESS=    0.0 pullay stress

  Mass of Ions in am
   POMASS = 192.22 16.00192.22 16.00
  Ionic Valenz
   ZVAL   =   9.00  6.00  9.00  6.00
  Atomic Wigner-Seitz radii
   RWIGS  =  -1.00 -1.00 -1.00 -1.00
  virtual crystal weights 
   VCA    =   1.00  1.00  1.00  1.00
   NELECT =     678.0000    total number of electrons
   NUPDOWN=      -1.0000    fix difference up-down

 DOS related values:
   EMIN   =  10.00;   EMAX   =-10.00  energy-range for DOS
   EFERMI =   0.00
   ISMEAR =     0;   SIGMA  =   0.05  broadening in eV -4-tet -1-fermi 0-gaus

 Electronic relaxation 2 (details)
   IALGO  =     68    algorithm
   LDIAG  =      T    sub-space diagonalisation (order eigenvalues)
   LSUBROT=      F    optimize rotation matrix (better conditioning)
   TURBO    =      0    0=normal 1=particle mesh
   IRESTART =      0    0=no restart 2=restart with 2 vectors
   NREBOOT  =      0    no. of reboots
   NMIN     =      0    reboot dimension
   EREF     =   0.00    reference energy to select bands
   IMIX   =      4    mixing-type and parameters
     AMIX     =   0.40;   BMIX     =  1.00
     AMIX_MAG =   1.60;   BMIX_MAG =  1.00
     AMIN     =   0.10
     WC   =   100.;   INIMIX=   1;  MIXPRE=   1;  MAXMIX= -45

 Intra band minimization:
   WEIMIN = 0.0010     energy-eigenvalue tresh-hold
   EBREAK =  0.57E-08  absolut break condition
   DEPER  =   0.30     relativ break condition  

   TIME   =   0.40     timestep for ELM

  volume/ion in A,a.u.               =      22.11       149.22
  Fermi-wavevector in a.u.,A,eV,Ry     =   1.115196  2.107415 16.921052  1.243662
  Thomas-Fermi vector in A             =   2.251798
 
 Write flags
   LWAVE        =      F    write WAVECAR
   LDOWNSAMPLE  =      F    k-point downsampling of WAVECAR
   LCHARG       =      F    write CHGCAR
   LVTOT        =      F    write LOCPOT, total local potential
   LVHAR        =      F    write LOCPOT, Hartree potential only
   LELF         =      F    write electronic localiz. function (ELF)
   LORBIT       =      0    0 simple, 1 ext, 2 COOP (PROOUT), +10 PAW based schemes


 Dipole corrections
   LMONO  =      F    monopole corrections only (constant potential shift)
   LDIPOL =      T    correct potential (dipole corrections)
   IDIPOL =      3    1-x, 2-y, 3-z, 4-all directions 
   EPSILON=  1.0000000 bulk dielectric constant

 Exchange correlation treatment:
   GGA     =    RP    GGA type
   LEXCH   =     9    internal setting for exchange type
   VOSKOWN=      0    Vosko Wilk Nusair interpolation
   LHFCALC =     F    Hartree Fock is set to
   LHFONE  =     F    Hartree Fock one center treatment
   AEXX    =    0.0000 exact exchange contribution

 Linear response parameters
   LEPSILON=     F    determine dielectric tensor
   LRPA    =     F    only Hartree local field effects (RPA)
   LNABLA  =     F    use nabla operator in PAW spheres
   LVEL    =     F    velocity operator in full k-point grid
   LINTERFAST=   F  fast interpolation
   KINTER  =     0    interpolate to denser k-point grid
   CSHIFT  =0.1000    complex shift for real part using Kramers Kronig
   OMEGAMAX=  -1.0    maximum frequency
   DEG_THRESHOLD= 0.2000000E-02 threshold for treating states as degnerate
   RTIME   =   -0.100 relaxation time in fs
  (WPLASMAI=    0.000 imaginary part of plasma frequency in eV, 0.658/RTIME)
   DFIELD  = 0.0000000 0.0000000 0.0000000 field for delta impulse in time
 
 Orbital magnetization related:
   ORBITALMAG=     F  switch on orbital magnetization
   LCHIMAG   =     F  perturbation theory with respect to B field
   DQ        =  0.001000  dq finite difference perturbation B field
   LLRAUG    =     F  two centre corrections for induced B field



--------------------------------------------------------------------------------------------------------


 conjugate gradient relaxation of ions
   using selective dynamics as specified on POSCAR
   WARNING: If single coordinates had been selected the selection of coordinates
            is made according to the corresponding   d i r e c t   coordinates!
            Don't support selection of single cartesian coordinates -- sorry ...
  !
 charge density and potential will be updated during run
 spin polarized calculation
 RMM-DIIS sequential band-by-band and
  variant of blocked Davidson during initial phase
 perform sub-space diagonalisation
    before iterative eigenvector-optimisation
 modified Broyden-mixing scheme, WC =      100.0
 initial mixing is a Kerker type mixing with AMIX =  0.4000 and BMIX =      1.0000
 Hartree-type preconditioning will be used
 using additional bands           97
 real space projection scheme for non local part
 use partial core corrections
 calculate Harris-corrections to forces 
   (improved forces if not selfconsistent)
 use gradient corrections 
 use of overlap-Matrix (Vanderbilt PP)
 Gauss-broadening in eV      SIGMA  =   0.05


--------------------------------------------------------------------------------------------------------


  energy-cutoff  :      500.00
  volume of cell :     2144.87
      direct lattice vectors                 reciprocal lattice vectors
    12.808532000  0.000000000  0.000000000     0.078072959  0.000000000  0.000000000
     0.000000000  6.470243000  0.000000000     0.000000000  0.154553701  0.000000000
     0.000000000  0.000000000 25.880972000     0.000000000  0.000000000  0.038638425

  length of vectors
    12.808532000  6.470243000 25.880972000     0.078072959  0.154553701  0.038638425


 
 k-points in units of 2pi/SCALE and weight: Automatic mesh                          
   0.00000000  0.00000000  0.00000000       0.111
   0.02602432  0.00000000  0.00000000       0.222
   0.00000000  0.05151790  0.00000000       0.222
   0.02602432  0.05151790  0.00000000       0.444
 
 k-points in reciprocal lattice and weights: Automatic mesh                          
   0.00000000  0.00000000  0.00000000       0.111
   0.33333333  0.00000000  0.00000000       0.222
   0.00000000  0.33333333  0.00000000       0.222
   0.33333333  0.33333333  0.00000000       0.444
 
 position of ions in fractional coordinates (direct lattice) 
   0.12500000  0.50000000  0.18750000
   0.37500000  0.50000000  0.18750000
   0.12500000  0.00000000  0.06250000
   0.37500000  0.00000000  0.06250000
   0.00000000  0.50000000  0.06250000
   0.25000000  0.50000000  0.06250000
   0.00000000  0.00000000  0.18750000
   0.25000000  0.00000000  0.18750000
   0.12515357  0.50000000  0.43923055
   0.37536233  0.50000000  0.43837248
   0.12495782  0.00000000  0.31177277
   0.37661104  0.00000000  0.31255471
   0.99981697  0.50000000  0.31309440
   0.25001427  0.50000000  0.31307883
   0.00045044  0.00000000  0.43451077
   0.25028285  0.00000000  0.43456551
   0.00000000  0.50000000  0.13961000
   0.25000000  0.50000000  0.13961000
   0.00000000  0.00000000  0.01461000
   0.25000000  0.00000000  0.01461000
   0.12500000  0.80844000  0.18750000
   0.37500000  0.80844000  0.18750000
   0.12500000  0.30844000  0.06250000
   0.37500000  0.30844000  0.06250000
   0.00000000  0.50000000  0.23539000
   0.25000000  0.50000000  0.23539000
   0.00000000  0.00000000  0.11039000
   0.25000000  0.00000000  0.11039000
   0.12500000  0.19156000  0.18750000
   0.37500000  0.19156000  0.18750000
   0.12500000  0.69156000  0.06250000
   0.37500000  0.69156000  0.06250000
   0.00011887  0.50000000  0.39005959
   0.24985436  0.50000000  0.39005463
   0.99956433  0.00000000  0.26426614
   0.25042108  0.00000000  0.26433673
   0.12531101  0.80995241  0.44024254
   0.37454447  0.80842619  0.43846226
   0.12475680  0.30838679  0.31266923
   0.37542648  0.30813264  0.31273829
   0.99965373  0.50000000  0.48489628
   0.25095468  0.50000000  0.48482695
   0.99986612  0.00000000  0.35915351
   0.25013521  0.00000000  0.35930047
   0.12531101  0.19004759  0.44024254
   0.37454447  0.19157381  0.43846226
   0.12475680  0.69161321  0.31266923
   0.37542648  0.69186736  0.31273829
   0.62500000  0.50000000  0.18750000
   0.87500000  0.50000000  0.18750000
   0.62500000  0.00000000  0.06250000
   0.87500000  0.00000000  0.06250000
   0.50000000  0.50000000  0.06250000
   0.75000000  0.50000000  0.06250000
   0.50000000  0.00000000  0.18750000
   0.75000000  0.00000000  0.18750000
   0.62503265  0.50000000  0.43777870
   0.87494957  0.50000000  0.43850543
   0.62494758  0.00000000  0.31298562
   0.87336988  0.00000000  0.31250020
   0.50011309  0.50000000  0.31278092
   0.74988352  0.50000000  0.31284033
   0.50022817  0.00000000  0.44206076
   0.75017969  0.00000000  0.44209797
   0.50000000  0.50000000  0.13961000
   0.75000000  0.50000000  0.13961000
   0.50000000  0.00000000  0.01461000
   0.75000000  0.00000000  0.01461000
   0.62500000  0.80844000  0.18750000
   0.87500000  0.80844000  0.18750000
   0.62500000  0.30844000  0.06250000
   0.87500000  0.30844000  0.06250000
   0.50000000  0.50000000  0.23539000
   0.75000000  0.50000000  0.23539000
   0.50000000  0.00000000  0.11039000
   0.75000000  0.00000000  0.11039000
   0.62500000  0.19156000  0.18750000
   0.87500000  0.19156000  0.18750000
   0.62500000  0.69156000  0.06250000
   0.87500000  0.69156000  0.06250000
   0.49999082  0.50000000  0.38947237
   0.75010590  0.50000000  0.38955129
   0.50020176  0.00000000  0.26464474
   0.74967433  0.00000000  0.26461819
   0.62496085  0.80900462  0.43616927
   0.87622580  0.80844766  0.43860063
   0.62484820  0.30755374  0.31251543
   0.87473337  0.30808707  0.31269372
   0.50077074  0.50000000  0.48361838
   0.49970819  0.00000000  0.36104662
   0.75026657  0.00000000  0.36111522
   0.62496085  0.19099538  0.43616927
   0.87622580  0.19155234  0.43860063
   0.62484820  0.69244626  0.31251543
   0.87473337  0.69191293  0.31269372
   0.74857164  0.00000000  0.51157397
   0.50164732  0.00000000  0.51148251
 
 position of ions in cartesian coordinates  (Angst):
   1.60106650  3.23512150  4.85268225
   4.80319950  3.23512150  4.85268225
   1.60106650  0.00000000  1.61756075
   4.80319950  0.00000000  1.61756075
   0.00000000  3.23512150  1.61756075
   3.20213300  3.23512150  1.61756075
   0.00000000  0.00000000  4.85268225
   3.20213300  0.00000000  4.85268225
   1.60303346  3.23512150 11.36771355
   4.80784047  3.23512150 11.34550597
   1.60052626  0.00000000  8.06898242
   4.82383458  0.00000000  8.08921964
  12.80618763  3.23512150  8.10318734
   3.20231578  3.23512150  8.10278434
   0.00576951  0.00000000 11.24556105
   3.20575596  0.00000000 11.24697768
   0.00000000  3.23512150  3.61324250
   3.20213300  3.23512150  3.61324250
   0.00000000  0.00000000  0.37812100
   3.20213300  0.00000000  0.37812100
   1.60106650  5.23080325  4.85268225
   4.80319950  5.23080325  4.85268225
   1.60106650  1.99568175  1.61756075
   4.80319950  1.99568175  1.61756075
   0.00000000  3.23512150  6.09212200
   3.20213300  3.23512150  6.09212200
   0.00000000  0.00000000  2.85700050
   3.20213300  0.00000000  2.85700050
   1.60106650  1.23943975  4.85268225
   4.80319950  1.23943975  4.85268225
   1.60106650  4.47456125  1.61756075
   4.80319950  4.47456125  1.61756075
   0.00152255  3.23512150 10.09512130
   3.20026753  3.23512150 10.09499285
  12.80295167  0.00000000  6.83946460
   3.20752645  0.00000000  6.84129159
   1.60505007  5.24058890 11.39390487
   4.79736484  5.23071391 11.34782935
   1.59795152  1.99533749  8.09218354
   4.80866206  1.99369308  8.09397080
  12.80409674  3.23512150 12.54958717
   3.21436111  3.23512150 12.54779267
  12.80681719  0.00000000  9.29524193
   3.20386485  0.00000000  9.29904545
   1.60505007  1.22965410 11.39390487
   4.79736484  1.23952909 11.34782935
   1.59795152  4.47490551  8.09218354
   4.80866206  4.47654992  8.09397080
   8.00533250  3.23512150  4.85268225
  11.20746550  3.23512150  4.85268225
   8.00533250  0.00000000  1.61756075
  11.20746550  0.00000000  1.61756075
   6.40426600  3.23512150  1.61756075
   9.60639900  3.23512150  1.61756075
   6.40426600  0.00000000  4.85268225
   9.60639900  0.00000000  4.85268225
   8.00575073  3.23512150 11.33013840
  11.20681960  3.23512150 11.34894674
   8.00466109  0.00000000  8.10037206
  11.18658610  0.00000000  8.08780889
   6.40571455  3.23512150  8.09507433
   9.60490704  3.23512150  8.09661180
   6.40718856  0.00000000 11.44096211
   9.60870061  0.00000000 11.44192510
   6.40426600  3.23512150  3.61324250
   9.60639900  3.23512150  3.61324250
   6.40426600  0.00000000  0.37812100
   9.60639900  0.00000000  0.37812100
   8.00533250  5.23080325  4.85268225
  11.20746550  5.23080325  4.85268225
   8.00533250  1.99568175  1.61756075
  11.20746550  1.99568175  1.61756075
   6.40426600  3.23512150  6.09212200
   9.60639900  3.23512150  6.09212200
   6.40426600  0.00000000  2.85700050
   9.60639900  0.00000000  2.85700050
   8.00533250  1.23943975  4.85268225
  11.20746550  1.23943975  4.85268225
   8.00533250  4.47456125  1.61756075
  11.20746550  4.47456125  1.61756075
   6.40414841  3.23512150 10.07992354
   9.60775538  3.23512150 10.08196607
   6.40685029  0.00000000  6.84926320
   9.60222768  0.00000000  6.84857601
   8.00483104  5.23445650 11.28848479
  11.22316616  5.23085280 11.35141069
   8.00338821  1.98994744  8.08820308
  11.20405040  1.99339822  8.09281731
   6.41413811  3.23512150 12.51651374
   6.40052830  0.00000000  9.34423756
   9.60981341  0.00000000  9.34601285
   8.00483104  1.23578650 11.28848479
  11.22316616  1.23939020 11.35141069
   8.00338821  4.48029556  8.08820308
  11.20405040  4.47684478  8.09281731
   9.58810381  0.00000000 13.24003167
   6.42536574  0.00000000 13.23766451
 


--------------------------------------------------------------------------------------------------------


 k-point  1 :   0.0000 0.0000 0.0000  plane waves:   54455
 k-point  2 :   0.3333 0.0000 0.0000  plane waves:   54459
 k-point  3 :   0.0000 0.3333 0.0000  plane waves:   54468
 k-point  4 :   0.3333 0.3333 0.0000  plane waves:   54434

 maximum and minimum number of plane-waves per node :      5497     5417

 maximum number of plane-waves:     54468
 maximum index in each direction: 
   IXMAX=   23   IYMAX=   11   IZMAX=   47
   IXMIN=  -23   IYMIN=  -12   IZMIN=  -47


 real space projection operators:
  total allocation   :      13702.22 KBytes
  max/ min on nodes  :       1374.81       1366.30


 parallel 3D FFT for wavefunctions:
    minimum data exchange during FFTs selected (reduces bandwidth)
 parallel 3D FFT for charge:
    minimum data exchange during FFTs selected (reduces bandwidth)


 total amount of memory used by VASP MPI-rank0   128678. kBytes
=======================================================================

   base      :      30000. kBytes
   nonlr-proj:       5867. kBytes
   fftplans  :       3841. kBytes
   grid      :      10919. kBytes
   one-center:        311. kBytes
   wavefun   :      77740. kBytes
 
     INWAV:  cpu time    0.0000: real time    0.0003
 Broyden mixing: mesh for mixing (old mesh)
   NGX = 47   NGY = 23   NGZ = 95
  (NGX  =140   NGY  = 72   NGZ  =288)
  gives a total of 102695 points

 initial charge density was supplied:
 charge density of overlapping atoms calculated
 number of electron     678.0000000 magnetization      58.2000000
 keeping initial charge density in first step


--------------------------------------------------------------------------------------------------------


 Maximum index for non-local projection operator          274
 Maximum index for augmentation-charges          641 (set IRDMAX)


--------------------------------------------------------------------------------------------------------


 First call to EWALD:  gamma=   0.137
 Maximum number of real-space cells 3x 5x 2
 Maximum number of reciprocal cells 3x 2x 5

    FEWALD:  cpu time    0.0045: real time    0.0045


--------------------------------------- Iteration      1(   1)  ---------------------------------------


    POTLOK:  cpu time    0.1119: real time    0.1197
    SETDIJ:  cpu time    0.0193: real time    0.0217
     EDDAV:  cpu time   14.8813: real time   14.9461
       DOS:  cpu time    0.0028: real time    0.0034
    --------------------------------------------
      LOOP:  cpu time   15.0152: real time   15.0909

 eigenvalue-minimisations  :  7016
 total energy-change (2. order) : 0.7574759E+04  (-0.3032647E+05)
 number of electron     678.0000000 magnetization      58.2000000
 augmentation part      678.0000000 magnetization      58.2000000

 DIPCOR: dipole corrections for dipol
 direction  3 min pos   217,
 dipolmoment           0.000000      0.000000     -0.000004 electrons x Angstroem
 Tr[quadrupol]    -12688.503779

 energy correction for charged system         0.000000 eV
 dipol+quadrupol energy correction           -0.000000 eV
 added-field ion interaction          0.000018 eV  (added to PSCEN)


 Free energy of the ion-electron system (eV)
  ---------------------------------------------------
  alpha Z        PSCENC =      1757.37339034
  Ewald energy   TEWEN  =    230013.76313425
  -Hartree energ DENC   =   -275592.59862838
  -exchange      EXHF   =         0.00000000
  -V(xc)+E(xc)   XCENC  =      1229.38805586
  PAW double counting   =     40208.51757012   -38987.70090968
  entropy T*S    EENTRO =        -0.05078535
  eigenvalues    EBANDS =      2944.89776456
  atomic energy  EATOM  =     46001.16897960
  Solvation  Ediel_sol  =         0.00000000
  ---------------------------------------------------
  free energy    TOTEN  =      7574.75857131 eV

  energy without entropy =     7574.80935667  energy(sigma->0) =     7574.78396399


--------------------------------------------------------------------------------------------------------




--------------------------------------- Iteration      1(   2)  ---------------------------------------


     EDDAV:  cpu time   15.4575: real time   15.5008
       DOS:  cpu time    0.0026: real time    0.0026
    --------------------------------------------
      LOOP:  cpu time   15.4601: real time   15.5034

 eigenvalue-minimisations  :  7336
 total energy-change (2. order) :-0.7028991E+04  (-0.6453536E+04)
 number of electron     678.0000000 magnetization      58.2000000
 augmentation part      678.0000000 magnetization      58.2000000

 DIPCOR: dipole corrections for dipol
 direction  3 min pos   217,
 dipolmoment           0.000000      0.000000     -0.000004 electrons x Angstroem
 Tr[quadrupol]    -12688.503779

 energy correction for charged system         0.000000 eV
 dipol+quadrupol energy correction           -0.000000 eV
 added-field ion interaction          0.000018 eV  (added to PSCEN)


 Free energy of the ion-electron system (eV)
  ---------------------------------------------------
  alpha Z        PSCENC =      1757.37339034
  Ewald energy   TEWEN  =    230013.76313425
  -Hartree energ DENC   =   -275592.59862838
  -exchange      EXHF   =         0.00000000
  -V(xc)+E(xc)   XCENC  =      1229.38805586
  PAW double counting   =     40208.51757012   -38987.70090968
  entropy T*S    EENTRO =        -0.05094069
  eigenvalues    EBANDS =     -4084.09293927
  atomic energy  EATOM  =     46001.16897960
  Solvation  Ediel_sol  =         0.00000000
  ---------------------------------------------------
  free energy    TOTEN  =       545.76771214 eV

  energy without entropy =      545.81865284  energy(sigma->0) =      545.79318249


--------------------------------------------------------------------------------------------------------




--------------------------------------- Iteration      1(   3)  ---------------------------------------


     EDDAV:  cpu time   17.8891: real time   17.9490
       DOS:  cpu time    0.0026: real time    0.0026
    --------------------------------------------
      LOOP:  cpu time   17.8917: real time   17.9516

 eigenvalue-minimisations  :  8848
 total energy-change (2. order) :-0.1221619E+04  (-0.1165508E+04)
 number of electron     678.0000000 magnetization      58.2000000
 augmentation part      678.0000000 magnetization      58.2000000

 DIPCOR: dipole corrections for dipol
 direction  3 min pos   217,
 dipolmoment           0.000000      0.000000     -0.000004 electrons x Angstroem
 Tr[quadrupol]    -12688.503779

 energy correction for charged system         0.000000 eV
 dipol+quadrupol energy correction           -0.000000 eV
 added-field ion interaction          0.000018 eV  (added to PSCEN)


 Free energy of the ion-electron system (eV)
  ---------------------------------------------------
  alpha Z        PSCENC =      1757.37339034
  Ewald energy   TEWEN  =    230013.76313425
  -Hartree energ DENC   =   -275592.59862838
  -exchange      EXHF   =         0.00000000
  -V(xc)+E(xc)   XCENC  =      1229.38805586
  PAW double counting   =     40208.51757012   -38987.70090968
  entropy T*S    EENTRO =        -0.08154109
  eigenvalues    EBANDS =     -5305.68175567
  atomic energy  EATOM  =     46001.16897960
  Solvation  Ediel_sol  =         0.00000000
  ---------------------------------------------------
  free energy    TOTEN  =      -675.85170465 eV

  energy without entropy =     -675.77016356  energy(sigma->0) =     -675.81093410


--------------------------------------------------------------------------------------------------------




--------------------------------------- Iteration      1(   4)  ---------------------------------------


     EDDAV:  cpu time   17.9429: real time   18.0424
       DOS:  cpu time    0.0027: real time    0.0027
    --------------------------------------------
      LOOP:  cpu time   17.9456: real time   18.0450

 eigenvalue-minimisations  :  8928
 total energy-change (2. order) :-0.7151706E+02  (-0.6915460E+02)
 number of electron     678.0000000 magnetization      58.2000000
 augmentation part      678.0000000 magnetization      58.2000000

 DIPCOR: dipole corrections for dipol
 direction  3 min pos   217,
 dipolmoment           0.000000      0.000000     -0.000004 electrons x Angstroem
 Tr[quadrupol]    -12688.503779

 energy correction for charged system         0.000000 eV
 dipol+quadrupol energy correction           -0.000000 eV
 added-field ion interaction          0.000018 eV  (added to PSCEN)


 Free energy of the ion-electron system (eV)
  ---------------------------------------------------
  alpha Z        PSCENC =      1757.37339034
  Ewald energy   TEWEN  =    230013.76313425
  -Hartree energ DENC   =   -275592.59862838
  -exchange      EXHF   =         0.00000000
  -V(xc)+E(xc)   XCENC  =      1229.38805586
  PAW double counting   =     40208.51757012   -38987.70090968
  entropy T*S    EENTRO =        -0.08346466
  eigenvalues    EBANDS =     -5377.19689013
  atomic energy  EATOM  =     46001.16897960
  Solvation  Ediel_sol  =         0.00000000
  ---------------------------------------------------
  free energy    TOTEN  =      -747.36876268 eV

  energy without entropy =     -747.28529803  energy(sigma->0) =     -747.32703035


--------------------------------------------------------------------------------------------------------




--------------------------------------- Iteration      1(   5)  ---------------------------------------


     EDDAV:  cpu time   18.0244: real time   18.0812
       DOS:  cpu time    0.0028: real time    0.0028
    CHARGE:  cpu time    0.3980: real time    0.3992
    MIXING:  cpu time    0.0031: real time    0.0043
    --------------------------------------------
      LOOP:  cpu time   18.4284: real time   18.4875

 eigenvalue-minimisations  :  8920
 total energy-change (2. order) :-0.2279945E+01  (-0.2244775E+01)
 number of electron     678.0000474 magnetization      54.4269242
 augmentation part      118.4493215 magnetization      45.2243132

 DIPCOR: dipole corrections for dipol
 direction  3 min pos   217,
 dipolmoment           0.000000      0.000000     -0.000004 electrons x Angstroem
 Tr[quadrupol]    -12688.503779

 energy correction for charged system         0.000000 eV
 dipol+quadrupol energy correction           -0.000000 eV
 added-field ion interaction          0.000018 eV  (added to PSCEN)


 Broyden mixing:
  rms(total) = 0.17282E+02    rms(broyden)= 0.17281E+02
  rms(prec ) = 0.17500E+02
  weight for this iteration     100.00

 Free energy of the ion-electron system (eV)
  ---------------------------------------------------
  alpha Z        PSCENC =      1757.37339034
  Ewald energy   TEWEN  =    230013.76313425
  -Hartree energ DENC   =   -275592.59862838
  -exchange      EXHF   =         0.00000000
  -V(xc)+E(xc)   XCENC  =      1229.38805586
  PAW double counting   =     40208.51757012   -38987.70090968
  entropy T*S    EENTRO =        -0.08446295
  eigenvalues    EBANDS =     -5379.47583695
  atomic energy  EATOM  =     46001.16897960
  Solvation  Ediel_sol  =         0.00000000
  ---------------------------------------------------
  free energy    TOTEN  =      -749.64870779 eV

  energy without entropy =     -749.56424484  energy(sigma->0) =     -749.60647632


--------------------------------------------------------------------------------------------------------




--------------------------------------- Iteration      1(   6)  ---------------------------------------


    POTLOK:  cpu time    0.1019: real time    0.1063
    SETDIJ:  cpu time    0.0190: real time    0.0190
    EDDIAG:  cpu time    2.1499: real time    2.1576
  RMM-DIIS:  cpu time    5.7215: real time    5.7386
    ORTHCH:  cpu time    0.6264: real time    0.6281
       DOS:  cpu time    0.0026: real time    0.0026
    CHARGE:  cpu time    0.3923: real time    0.3934
    MIXING:  cpu time    0.0031: real time    0.0032
    --------------------------------------------
      LOOP:  cpu time    9.0167: real time    9.0487

 eigenvalue-minimisations  :  7017
 total energy-change (2. order) : 0.1200990E+03  (-0.7023897E+02)
 number of electron     678.0000465 magnetization      51.0745986
 augmentation part      128.2588745 magnetization      41.1029185

 DIPCOR: dipole corrections for dipol
 direction  3 min pos   217,
 dipolmoment           0.000000      0.000000      0.645306 electrons x Angstroem
 Tr[quadrupol]    -12677.222192

 energy correction for charged system         0.000000 eV
 dipol+quadrupol energy correction           -0.017569 eV
 added-field ion interaction         -2.581376 eV  (added to PSCEN)


 Broyden mixing:
  rms(total) = 0.10917E+02    rms(broyden)= 0.10914E+02
  rms(prec ) = 0.11510E+02
  weight for this iteration     100.00

 eigenvalues of (default mixing * dielectric matrix)
  average eigenvalue GAMMA=   0.9704
  0.9704

 Free energy of the ion-electron system (eV)
  ---------------------------------------------------
  alpha Z        PSCENC =      1754.77442777
  Ewald energy   TEWEN  =    230013.76313425
  -Hartree energ DENC   =   -275885.08948866
  -exchange      EXHF   =         0.00000000
  -V(xc)+E(xc)   XCENC  =      1307.17479833
  PAW double counting   =     48051.48543536   -46894.58239218
  entropy T*S    EENTRO =        -0.05641087
  eigenvalues    EBANDS =     -4978.18815301
  atomic energy  EATOM  =     46001.16897960
  Solvation  Ediel_sol  =         0.00000000
  ---------------------------------------------------
  free energy    TOTEN  =      -629.54966942 eV

  energy without entropy =     -629.49325855  energy(sigma->0) =     -629.52146399


--------------------------------------------------------------------------------------------------------




--------------------------------------- Iteration      1(   7)  ---------------------------------------


    POTLOK:  cpu time    0.1026: real time    0.1116
    SETDIJ:  cpu time    0.0190: real time    0.0190
    EDDIAG:  cpu time    2.1599: real time    2.1656
  RMM-DIIS:  cpu time    6.4265: real time    6.4439
    ORTHCH:  cpu time    0.6265: real time    0.6281
       DOS:  cpu time    0.0024: real time    0.0024
    CHARGE:  cpu time    0.3906: real time    0.3915
    MIXING:  cpu time    0.0030: real time    0.0030
    --------------------------------------------
      LOOP:  cpu time    9.7305: real time    9.7652

 eigenvalue-minimisations  :  7949
 total energy-change (2. order) :-0.8275182E+03  (-0.6741728E+02)
 number of electron     678.0000351 magnetization      50.9929484
 augmentation part      122.0364331 magnetization      44.6614201

 DIPCOR: dipole corrections for dipol
 direction  3 min pos   217,
 dipolmoment           0.000000      0.000000     -8.672035 electrons x Angstroem
 Tr[quadrupol]    -12719.941621

 energy correction for charged system         0.000000 eV
 dipol+quadrupol energy correction           -3.172838 eV
 added-field ion interaction         34.690177 eV  (added to PSCEN)


 Broyden mixing:
  rms(total) = 0.35834E+02    rms(broyden)= 0.35833E+02
  rms(prec ) = 0.40980E+02
  weight for this iteration     100.00

 eigenvalues of (default mixing * dielectric matrix)
  average eigenvalue GAMMA=   0.4824
  0.9274  0.0373

 Free energy of the ion-electron system (eV)
  ---------------------------------------------------
  alpha Z        PSCENC =      1788.89071131
  Ewald energy   TEWEN  =    230013.76313425
  -Hartree energ DENC   =   -276699.84855279
  -exchange      EXHF   =         0.00000000
  -V(xc)+E(xc)   XCENC  =      1282.64060338
  PAW double counting   =     53254.63525166   -52104.82494755
  entropy T*S    EENTRO =        -0.04275221
  eigenvalues    EBANDS =     -4993.45025253
  atomic energy  EATOM  =     46001.16897960
  Solvation  Ediel_sol  =         0.00000000
  ---------------------------------------------------
  free energy    TOTEN  =     -1457.06782488 eV

  energy without entropy =    -1457.02507267  energy(sigma->0) =    -1457.04644877


--------------------------------------------------------------------------------------------------------




--------------------------------------- Iteration      1(   8)  ---------------------------------------


    POTLOK:  cpu time    0.1019: real time    0.1026
    SETDIJ:  cpu time    0.0190: real time    0.0191
    EDDIAG:  cpu time    2.1881: real time    2.1937
  RMM-DIIS:  cpu time    6.9183: real time    6.9370
    ORTHCH:  cpu time    0.6264: real time    0.6280
       DOS:  cpu time    0.0024: real time    0.0024
    CHARGE:  cpu time    0.3851: real time    0.3860
    MIXING:  cpu time    0.0035: real time    0.0053
    --------------------------------------------
      LOOP:  cpu time   10.2448: real time   10.2741

 eigenvalue-minimisations  :  8556
 total energy-change (2. order) : 0.7448720E+02  (-0.1449669E+02)
 number of electron     678.0000352 magnetization      50.3091179
 augmentation part      120.3073962 magnetization      43.8445194

 DIPCOR: dipole corrections for dipol
 direction  3 min pos   217,
 dipolmoment           0.000000      0.000000     -8.089182 electrons x Angstroem
 Tr[quadrupol]    -12720.421042

 energy correction for charged system         0.000000 eV
 dipol+quadrupol energy correction           -2.760673 eV
 added-field ion interaction         32.358628 eV  (added to PSCEN)


 Broyden mixing:
  rms(total) = 0.31216E+02    rms(broyden)= 0.31216E+02
  rms(prec ) = 0.36783E+02
  weight for this iteration     100.00

 eigenvalues of (default mixing * dielectric matrix)
  average eigenvalue GAMMA=   0.3938
  0.9708  0.1053  0.1053

 Free energy of the ion-electron system (eV)
  ---------------------------------------------------
  alpha Z        PSCENC =      1786.97132662
  Ewald energy   TEWEN  =    230013.76313425
  -Hartree energ DENC   =   -276701.85469691
  -exchange      EXHF   =         0.00000000
  -V(xc)+E(xc)   XCENC  =      1282.53716294
  PAW double counting   =     53465.08945187   -52313.51220556
  entropy T*S    EENTRO =        -0.04586422
  eigenvalues    EBANDS =     -4916.69791575
  atomic energy  EATOM  =     46001.16897960
  Solvation  Ediel_sol  =         0.00000000
  ---------------------------------------------------
  free energy    TOTEN  =     -1382.58062717 eV

  energy without entropy =    -1382.53476294  energy(sigma->0) =    -1382.55769506


--------------------------------------------------------------------------------------------------------




--------------------------------------- Iteration      1(   9)  ---------------------------------------


    POTLOK:  cpu time    0.1012: real time    0.1017
    SETDIJ:  cpu time    0.0191: real time    0.0191
    EDDIAG:  cpu time    2.1519: real time    2.1578
  RMM-DIIS:  cpu time    5.6582: real time    5.6981
    ORTHCH:  cpu time    0.6276: real time    0.6294
       DOS:  cpu time    0.0025: real time    0.0025
    CHARGE:  cpu time    0.3896: real time    0.3906
    MIXING:  cpu time    0.0034: real time    0.0034
    --------------------------------------------
      LOOP:  cpu time    8.9536: real time    9.0026

 eigenvalue-minimisations  :  7001
 total energy-change (2. order) : 0.6789056E+03  (-0.1617778E+02)
 number of electron     678.0000483 magnetization      48.0684288
 augmentation part      123.0398024 magnetization      40.5902550

 DIPCOR: dipole corrections for dipol
 direction  3 min pos   217,
 dipolmoment           0.000000      0.000000      3.823324 electrons x Angstroem
 Tr[quadrupol]    -12667.791199

 energy correction for charged system         0.000000 eV
 dipol+quadrupol energy correction           -0.616720 eV
 added-field ion interaction        -15.294195 eV  (added to PSCEN)


 Broyden mixing:
  rms(total) = 0.14620E+02    rms(broyden)= 0.14617E+02
  rms(prec ) = 0.17187E+02
  weight for this iteration     100.00

 eigenvalues of (default mixing * dielectric matrix)
  average eigenvalue GAMMA=   0.4499
  1.2896  0.3142  0.0979  0.0979

 Free energy of the ion-electron system (eV)
  ---------------------------------------------------
  alpha Z        PSCENC =      1741.46245682
  Ewald energy   TEWEN  =    230013.76313425
  -Hartree energ DENC   =   -275596.01938427
  -exchange      EXHF   =         0.00000000
  -V(xc)+E(xc)   XCENC  =      1287.08439475
  PAW double counting   =     53055.25653549   -51908.68600092
  entropy T*S    EENTRO =        -0.04613974
  eigenvalues    EBANDS =     -5297.65900313
  atomic energy  EATOM  =     46001.16897960
  Solvation  Ediel_sol  =         0.00000000
  ---------------------------------------------------
  free energy    TOTEN  =      -703.67502716 eV

  energy without entropy =     -703.62888742  energy(sigma->0) =     -703.65195729


--------------------------------------------------------------------------------------------------------




--------------------------------------- Iteration      1(  10)  ---------------------------------------


    POTLOK:  cpu time    0.1016: real time    0.1022
    SETDIJ:  cpu time    0.0189: real time    0.0190
    EDDIAG:  cpu time    2.1522: real time    2.1582
  RMM-DIIS:  cpu time    5.6843: real time    5.6992
    ORTHCH:  cpu time    0.6316: real time    0.6335
       DOS:  cpu time    0.0024: real time    0.0024
    CHARGE:  cpu time    0.3925: real time    0.3934
    MIXING:  cpu time    0.0036: real time    0.0036
    --------------------------------------------
      LOOP:  cpu time    8.9871: real time    9.0114

 eigenvalue-minimisations  :  6997
 total energy-change (2. order) : 0.9672622E+02  (-0.2641497E+01)
 number of electron     678.0000464 magnetization      45.1350558
 augmentation part      123.4716086 magnetization      38.5539455

 DIPCOR: dipole corrections for dipol
 direction  3 min pos   217,
 dipolmoment           0.000000      0.000000      2.001982 electrons x Angstroem
 Tr[quadrupol]    -12654.520116

 energy correction for charged system         0.000000 eV
 dipol+quadrupol energy correction           -0.169093 eV
 added-field ion interaction         -8.008397 eV  (added to PSCEN)


 Broyden mixing:
  rms(total) = 0.62521E+01    rms(broyden)= 0.62509E+01
  rms(prec ) = 0.67202E+01
  weight for this iteration     100.00

 eigenvalues of (default mixing * dielectric matrix)
  average eigenvalue GAMMA=   0.5043
  1.3925  0.4724  0.4724  0.0921  0.0921

 Free energy of the ion-electron system (eV)
  ---------------------------------------------------
  alpha Z        PSCENC =      1749.19588250
  Ewald energy   TEWEN  =    230013.76313425
  -Hartree energ DENC   =   -275333.91469172
  -exchange      EXHF   =         0.00000000
  -V(xc)+E(xc)   XCENC  =      1288.29948971
  PAW double counting   =     55843.05866003   -54709.26064566
  entropy T*S    EENTRO =        -0.05708476
  eigenvalues    EBANDS =     -5459.20253405
  atomic energy  EATOM  =     46001.16897960
  Solvation  Ediel_sol  =         0.00000000
  ---------------------------------------------------
  free energy    TOTEN  =      -606.94881011 eV

  energy without entropy =     -606.89172535  energy(sigma->0) =     -606.92026773


--------------------------------------------------------------------------------------------------------




--------------------------------------- Iteration      1(  11)  ---------------------------------------


    POTLOK:  cpu time    0.1025: real time    0.1040
    SETDIJ:  cpu time    0.0189: real time    0.0189
    EDDIAG:  cpu time    2.1556: real time    2.1616
  RMM-DIIS:  cpu time    5.7477: real time    5.7629
    ORTHCH:  cpu time    0.6291: real time    0.6309
       DOS:  cpu time    0.0026: real time    0.0026
    CHARGE:  cpu time    0.3908: real time    0.3917
    MIXING:  cpu time    0.0041: real time    0.0041
    --------------------------------------------
      LOOP:  cpu time    9.0515: real time    9.0768

 eigenvalue-minimisations  :  6992
 total energy-change (2. order) :-0.5275990E+02  (-0.4872568E+01)
 number of electron     678.0000501 magnetization      42.7846067
 augmentation part      124.5141473 magnetization      37.5394843

 DIPCOR: dipole corrections for dipol
 direction  3 min pos   217,
 dipolmoment           0.000000      0.000000      3.837036 electrons x Angstroem
 Tr[quadrupol]    -12645.342089

 energy correction for charged system         0.000000 eV
 dipol+quadrupol energy correction           -0.621152 eV
 added-field ion interaction        -15.349047 eV  (added to PSCEN)


 Broyden mixing:
  rms(total) = 0.10928E+02    rms(broyden)= 0.10927E+02
  rms(prec ) = 0.13256E+02
  weight for this iteration     100.00

 eigenvalues of (default mixing * dielectric matrix)
  average eigenvalue GAMMA=   0.5482
  1.8032  0.6517  0.3251  0.3251  0.0921  0.0921

 Free energy of the ion-electron system (eV)
  ---------------------------------------------------
  alpha Z        PSCENC =      1741.40317423
  Ewald energy   TEWEN  =    230013.76313425
  -Hartree energ DENC   =   -275112.51983767
  -exchange      EXHF   =         0.00000000
  -V(xc)+E(xc)   XCENC  =      1288.98087244
  PAW double counting   =     57440.49714500   -56316.59360233
  entropy T*S    EENTRO =        -0.04537703
  eigenvalues    EBANDS =     -5716.36320119
  atomic energy  EATOM  =     46001.16897960
  Solvation  Ediel_sol  =         0.00000000
  ---------------------------------------------------
  free energy    TOTEN  =      -659.70871271 eV

  energy without entropy =     -659.66333568  energy(sigma->0) =     -659.68602420


--------------------------------------------------------------------------------------------------------




--------------------------------------- Iteration      1(  12)  ---------------------------------------


    POTLOK:  cpu time    0.1018: real time    0.1061
    SETDIJ:  cpu time    0.0192: real time    0.0192
    EDDIAG:  cpu time    2.1503: real time    2.1571
  RMM-DIIS:  cpu time    5.7185: real time    5.7336
    ORTHCH:  cpu time    0.6334: real time    0.6351
       DOS:  cpu time    0.0029: real time    0.0029
    CHARGE:  cpu time    0.3940: real time    0.3951
    MIXING:  cpu time    0.0042: real time    0.0042
    --------------------------------------------
      LOOP:  cpu time    9.0243: real time    9.0533

 eigenvalue-minimisations  :  6987
 total energy-change (2. order) : 0.6142349E+02  (-0.1451663E+01)
 number of electron     678.0000456 magnetization      41.8505333
 augmentation part      125.2445588 magnetization      34.7149221

 DIPCOR: dipole corrections for dipol
 direction  3 min pos   217,
 dipolmoment           0.000000      0.000000      2.719984 electrons x Angstroem
 Tr[quadrupol]    -12640.203890

 energy correction for charged system         0.000000 eV
 dipol+quadrupol energy correction           -0.312132 eV
 added-field ion interaction        -10.880576 eV  (added to PSCEN)


 Broyden mixing:
  rms(total) = 0.57846E+01    rms(broyden)= 0.57828E+01
  rms(prec ) = 0.63372E+01
  weight for this iteration     100.00

 eigenvalues of (default mixing * dielectric matrix)
  average eigenvalue GAMMA=   0.5213
  1.8183  0.6858  0.3633  0.3633  0.0921  0.0921  0.2342

 Free energy of the ion-electron system (eV)
  ---------------------------------------------------
  alpha Z        PSCENC =      1746.18066411
  Ewald energy   TEWEN  =    230013.76313425
  -Hartree energ DENC   =   -275073.77494723
  -exchange      EXHF   =         0.00000000
  -V(xc)+E(xc)   XCENC  =      1292.31175274
  PAW double counting   =     58871.67578236   -57754.61709214
  entropy T*S    EENTRO =        -0.05536687
  eigenvalues    EBANDS =     -5694.93813290
  atomic energy  EATOM  =     46001.16897960
  Solvation  Ediel_sol  =         0.00000000
  ---------------------------------------------------
  free energy    TOTEN  =      -598.28522607 eV

  energy without entropy =     -598.22985920  energy(sigma->0) =     -598.25754264


--------------------------------------------------------------------------------------------------------




--------------------------------------- Iteration      1(  13)  ---------------------------------------


    POTLOK:  cpu time    0.1018: real time    0.1025
    SETDIJ:  cpu time    0.0188: real time    0.0189
    EDDIAG:  cpu time    2.1481: real time    2.1540
  RMM-DIIS:  cpu time    5.7100: real time    5.7253
    ORTHCH:  cpu time    0.6325: real time    0.6342
       DOS:  cpu time    0.0026: real time    0.0026
    CHARGE:  cpu time    0.3911: real time    0.3923
    MIXING:  cpu time    0.0042: real time    0.0042
    --------------------------------------------
      LOOP:  cpu time    9.0091: real time    9.0339

 eigenvalue-minimisations  :  6978
 total energy-change (2. order) :-0.1875715E+01  (-0.6228269E+00)
 number of electron     678.0000491 magnetization      40.2302230
 augmentation part      124.9318386 magnetization      32.0533893

 DIPCOR: dipole corrections for dipol
 direction  3 min pos   217,
 dipolmoment           0.000000      0.000000      3.810873 electrons x Angstroem
 Tr[quadrupol]    -12641.845885

 energy correction for charged system         0.000000 eV
 dipol+quadrupol energy correction           -0.612710 eV
 added-field ion interaction        -15.244388 eV  (added to PSCEN)


 Broyden mixing:
  rms(total) = 0.46363E+01    rms(broyden)= 0.46343E+01
  rms(prec ) = 0.58066E+01
  weight for this iteration     100.00

 eigenvalues of (default mixing * dielectric matrix)
  average eigenvalue GAMMA=   0.5230
  1.9769  0.7369  0.4024  0.4024  0.0921  0.0921  0.2405  0.2405

 Free energy of the ion-electron system (eV)
  ---------------------------------------------------
  alpha Z        PSCENC =      1741.51627422
  Ewald energy   TEWEN  =    230013.76313425
  -Hartree energ DENC   =   -275128.84982388
  -exchange      EXHF   =         0.00000000
  -V(xc)+E(xc)   XCENC  =      1290.26984550
  PAW double counting   =     59073.45368189   -57958.16012868
  entropy T*S    EENTRO =        -0.07120111
  eigenvalues    EBANDS =     -5633.25170317
  atomic energy  EATOM  =     46001.16897960
  Solvation  Ediel_sol  =         0.00000000
  ---------------------------------------------------
  free energy    TOTEN  =      -600.16094138 eV

  energy without entropy =     -600.08974027  energy(sigma->0) =     -600.12534082


--------------------------------------------------------------------------------------------------------




--------------------------------------- Iteration      1(  14)  ---------------------------------------


    POTLOK:  cpu time    0.1034: real time    0.1129
    SETDIJ:  cpu time    0.0190: real time    0.0190
    EDDIAG:  cpu time    2.1566: real time    2.1623
[...]
   0.169E+02 -.233E-12 -.117E+04   -.161E+02 0.160E-11 0.117E+04   -.861E+00 0.000E+00 -.149E+01   0.273E-01 0.173E-12 0.626E-01
   0.177E+02 0.132E-12 -.115E+04   -.178E+02 0.460E-13 0.115E+04   0.157E+00 0.000E+00 -.635E+00   -.663E-01 -.261E-12 0.378E-01
   0.712E+01 -.580E-12 -.832E+02   -.837E+01 -.497E-13 0.815E+02   0.118E+01 0.000E+00 0.142E+01   0.548E-01 0.731E-12 0.315E+00
   0.162E+01 -.448E-12 -.787E+02   -.431E+00 -.446E-14 0.771E+02   -.112E+01 0.000E+00 0.131E+01   -.674E-01 0.151E-12 0.353E+00
   0.157E+02 -.136E+01 -.166E+04   -.160E+02 -.451E+00 0.166E+04   0.348E+00 0.184E+01 -.482E+01   0.224E-02 -.225E-01 -.697E-01
   0.400E+02 0.167E+02 -.159E+04   -.405E+02 -.187E+02 0.160E+04   0.611E+00 0.195E+01 -.184E+01   -.704E-01 0.953E-02 -.685E-01
   0.619E+01 0.332E+02 -.526E+03   -.610E+01 -.348E+02 0.525E+03   -.791E-01 0.165E+01 0.410E+00   -.592E-02 -.411E-01 0.238E+00
   0.466E+01 0.330E+02 -.516E+03   -.492E+01 -.345E+02 0.515E+03   0.320E+00 0.160E+01 0.664E+00   -.634E-01 -.167E-01 0.215E+00
   0.178E+02 0.756E-12 -.201E+04   -.176E+02 0.207E-11 0.204E+04   -.168E+00 0.000E+00 -.283E+02   -.228E-02 -.123E-11 -.203E+00
   0.291E+02 0.159E-11 -.201E+04   -.290E+02 0.453E-13 0.204E+04   -.327E-01 0.000E+00 -.283E+02   -.599E-01 0.605E-13 -.152E+00
   0.256E+01 -.791E-12 -.981E+03   -.260E+01 -.263E-12 0.978E+03   -.303E-01 0.000E+00 0.338E+01   0.603E-01 0.146E-12 0.768E-01
   0.136E+02 0.457E-12 -.969E+03   -.134E+02 -.470E-13 0.965E+03   -.132E+00 0.000E+00 0.367E+01   -.731E-01 0.689E-13 0.107E+00
   0.157E+02 0.136E+01 -.166E+04   -.160E+02 0.451E+00 0.166E+04   0.348E+00 -.184E+01 -.482E+01   0.224E-02 0.225E-01 -.697E-01
   0.400E+02 -.167E+02 -.159E+04   -.405E+02 0.187E+02 0.160E+04   0.611E+00 -.195E+01 -.184E+01   -.704E-01 -.953E-02 -.685E-01
   0.619E+01 -.332E+02 -.526E+03   -.610E+01 0.348E+02 0.525E+03   -.791E-01 -.165E+01 0.410E+00   -.592E-02 0.411E-01 0.238E+00
   0.466E+01 -.330E+02 -.516E+03   -.492E+01 0.345E+02 0.515E+03   0.320E+00 -.160E+01 0.664E+00   -.634E-01 0.167E-01 0.215E+00
   -.452E+01 0.127E-11 0.840E+03   0.459E+01 -.859E-13 -.841E+03   -.284E-01 0.000E+00 -.638E+00   0.883E-02 0.887E-12 0.573E+00
   0.135E+01 -.760E-12 0.837E+03   -.147E+01 -.941E-13 -.837E+03   0.235E-01 0.000E+00 -.676E+00   0.446E-01 -.961E-12 0.591E+00
   -.897E+00 0.102E-13 0.242E+04   0.881E+00 -.881E-13 -.243E+04   -.182E-01 0.000E+00 0.147E+01   0.437E-02 -.947E-12 0.224E+00
   0.161E+00 0.469E-13 0.242E+04   -.166E+00 -.585E-13 -.243E+04   0.141E-01 0.000E+00 0.146E+01   0.237E-01 -.448E-13 0.245E+00
   -.709E+00 -.330E-11 0.257E+04   0.724E+00 0.340E-14 -.257E+04   -.219E-01 0.000E+00 -.258E+01   -.106E-01 -.288E-13 0.215E+00
   -.533E+00 -.105E-11 0.257E+04   0.520E+00 0.713E-13 -.257E+04   -.861E-02 0.000E+00 -.238E+01   0.173E-01 -.549E-12 0.218E+00
   -.339E+01 0.231E-13 0.838E+03   0.343E+01 0.178E-13 -.839E+03   -.978E-02 0.000E+00 0.175E+00   -.268E-01 0.455E-13 0.570E+00
   -.205E+01 -.440E-12 0.832E+03   0.200E+01 -.266E-13 -.833E+03   0.299E-01 0.000E+00 0.162E+00   0.453E-01 0.140E-12 0.568E+00
   -.155E+03 0.312E-12 -.242E+04   0.153E+03 0.560E-12 0.242E+04   0.202E+01 0.000E+00 -.357E+00   0.480E-01 0.225E-12 -.489E-01
   0.104E+03 0.145E-11 -.246E+04   -.101E+03 0.203E-10 0.246E+04   -.210E+01 0.000E+00 -.173E+00   0.551E-01 -.247E-12 -.514E-01
   -.152E+02 -.468E-12 -.799E+03   0.152E+02 -.532E-13 0.799E+03   -.295E-02 0.000E+00 -.487E+00   0.136E-01 0.902E-12 0.319E+00
   -.518E+00 0.922E-13 -.805E+03   -.170E+00 -.255E-12 0.804E+03   0.624E+00 0.000E+00 0.866E-01   0.737E-01 0.517E-12 0.325E+00
   -.117E+02 -.201E-11 -.772E+03   0.115E+02 0.885E-13 0.772E+03   0.187E+00 0.000E+00 -.162E+00   -.233E-01 -.404E-13 0.343E+00
   -.987E+01 0.874E-12 -.810E+03   0.984E+01 0.256E-12 0.810E+03   -.245E-01 0.000E+00 -.116E+00   0.624E-01 0.972E-12 0.350E+00
   0.170E+02 -.147E-11 -.233E+04   -.170E+02 -.749E-13 0.233E+04   -.499E-01 0.000E+00 -.211E+01   -.391E-01 0.333E-13 -.690E-01
   -.579E+02 0.414E-12 -.236E+04   0.578E+02 0.226E-11 0.236E+04   0.103E+00 0.000E+00 -.213E+01   0.522E-01 0.104E-12 -.662E-01
   -.133E+01 -.286E-11 0.102E+04   0.135E+01 -.183E-13 -.102E+04   -.203E-02 0.000E+00 -.163E+01   -.889E-02 0.153E-12 0.389E+00
   -.788E+00 -.214E-11 0.102E+04   0.779E+00 -.134E-13 -.102E+04   -.248E-01 0.000E+00 -.109E+01   0.192E-01 -.816E-12 0.402E+00
   -.234E+00 -.896E-12 0.202E+04   0.226E+00 -.131E-14 -.205E+04   0.108E-01 0.000E+00 0.277E+02   0.161E-03 0.414E-12 -.705E-01
   -.284E+00 0.246E-12 0.202E+04   0.281E+00 0.105E-13 -.205E+04   -.550E-02 0.000E+00 0.277E+02   0.841E-02 -.631E-12 -.664E-01
   -.282E+01 0.343E+02 0.558E+03   0.282E+01 -.360E+02 -.558E+03   -.612E-01 0.166E+01 -.162E-01   0.290E-02 0.118E-01 0.376E+00
   0.101E+01 0.346E+02 0.556E+03   -.107E+01 -.363E+02 -.557E+03   0.610E-01 0.166E+01 0.170E-02   0.489E-01 0.262E-01 0.387E+00
   -.557E+00 -.356E+01 0.165E+04   0.593E+00 0.174E+01 -.165E+04   -.717E-01 0.178E+01 -.517E+00   -.239E-02 -.138E-01 0.144E+00
   0.500E-01 -.357E+01 0.165E+04   -.108E+00 0.175E+01 -.165E+04   0.747E-01 0.179E+01 -.519E+00   0.190E-01 -.162E-01 0.155E+00
   -.467E+01 -.107E-11 0.114E+03   0.470E+01 0.142E-14 -.112E+03   -.433E-01 0.000E+00 -.213E+01   -.142E-01 0.330E-12 0.363E+00
   -.275E+01 -.611E-12 0.103E+03   0.271E+01 0.105E-13 -.100E+03   0.335E-01 0.000E+00 -.271E+01   0.283E-01 0.869E-12 0.374E+00
   -.924E+00 0.386E-12 0.119E+04   0.915E+00 0.211E-13 -.119E+04   0.280E-01 0.000E+00 0.326E+00   -.690E-02 -.180E-12 0.339E+00
   -.525E+00 -.101E-11 0.119E+04   0.522E+00 0.110E-14 -.119E+04   -.257E-01 0.000E+00 0.361E+00   0.197E-01 0.123E-12 0.336E+00
   -.282E+01 -.343E+02 0.558E+03   0.282E+01 0.360E+02 -.558E+03   -.612E-01 -.166E+01 -.162E-01   0.290E-02 -.118E-01 0.376E+00
   0.101E+01 -.346E+02 0.556E+03   -.107E+01 0.363E+02 -.557E+03   0.610E-01 -.166E+01 0.170E-02   0.489E-01 -.262E-01 0.387E+00
   -.557E+00 0.356E+01 0.165E+04   0.593E+00 -.174E+01 -.165E+04   -.717E-01 -.178E+01 -.517E+00   -.239E-02 0.138E-01 0.144E+00
   0.500E-01 0.357E+01 0.165E+04   -.108E+00 -.175E+01 -.165E+04   0.747E-01 -.179E+01 -.519E+00   0.190E-01 0.162E-01 0.155E+00
   -.156E+02 -.306E-11 -.114E+04   0.147E+02 0.201E-13 0.114E+04   0.861E+00 0.000E+00 -.145E+01   -.809E-02 -.554E-12 0.340E-01
   -.194E+02 -.638E-11 -.121E+04   0.198E+02 0.182E-11 0.121E+04   -.430E+00 0.000E+00 0.107E+01   0.669E-01 0.561E-12 0.261E-01
   -.709E+01 -.180E-12 -.756E+02   0.827E+01 -.219E-13 0.728E+02   -.116E+01 0.000E+00 0.241E+01   -.246E-01 0.424E-12 0.324E+00
   -.223E+01 0.272E-12 -.825E+02   0.117E+01 -.214E-13 0.798E+02   0.102E+01 0.000E+00 0.241E+01   0.356E-01 0.357E-12 0.333E+00
   -.419E+02 0.664E+02 -.155E+04   0.418E+02 -.687E+02 0.155E+04   0.108E+00 0.237E+01 0.224E+01   0.207E-01 -.348E-01 -.563E-01
   -.126E+02 0.445E+02 -.163E+04   0.133E+02 -.466E+02 0.163E+04   -.737E+00 0.218E+01 -.259E+01   0.466E-01 -.636E-01 -.650E-01
   -.118E+02 0.307E+02 -.531E+03   0.121E+02 -.324E+02 0.531E+03   -.248E+00 0.170E+01 -.236E+00   0.591E-02 -.250E-02 0.209E+00
   0.105E+01 0.308E+02 -.542E+03   -.113E+01 -.325E+02 0.543E+03   0.302E-01 0.175E+01 -.437E+00   0.495E-01 0.145E-01 0.224E+00
   -.202E+02 -.536E-12 -.199E+04   0.202E+02 0.435E-13 0.202E+04   0.324E-01 0.000E+00 -.291E+02   -.330E-02 0.360E-12 -.115E+00
   -.298E+01 -.492E-12 -.980E+03   0.332E+01 -.502E-13 0.987E+03   -.314E+00 0.000E+00 -.752E+01   -.110E-01 0.113E-11 0.758E-01
   -.140E+02 0.121E-11 -.997E+03   0.134E+02 -.241E-12 0.100E+04   0.517E+00 0.000E+00 -.750E+01   0.299E-01 -.304E-12 0.634E-01
   -.419E+02 -.664E+02 -.155E+04   0.418E+02 0.687E+02 0.155E+04   0.108E+00 -.237E+01 0.224E+01   0.207E-01 0.348E-01 -.563E-01
   -.126E+02 -.445E+02 -.163E+04   0.133E+02 0.466E+02 0.163E+04   -.737E+00 -.218E+01 -.259E+01   0.466E-01 0.636E-01 -.650E-01
   -.118E+02 -.307E+02 -.531E+03   0.121E+02 0.324E+02 0.531E+03   -.248E+00 -.170E+01 -.236E+00   0.591E-02 0.250E-02 0.209E+00
   0.105E+01 -.308E+02 -.542E+03   -.113E+01 0.325E+02 0.543E+03   0.302E-01 -.175E+01 -.437E+00   0.495E-01 -.145E-01 0.224E+00
   -.526E+02 -.176E-12 -.202E+04   0.521E+02 -.239E-12 0.205E+04   0.485E+00 0.000E+00 -.311E+02   0.614E-03 0.151E-11 -.181E+00
   0.272E+02 0.545E-12 -.203E+04   -.267E+02 -.446E-13 0.206E+04   -.563E+00 0.000E+00 -.316E+02   0.105E-03 -.256E-12 -.163E+00
 -----------------------------------------------------------------------------------------------
   -.179E+00 0.401E-10 0.611E+02   0.274E-11 0.107E-12 0.546E-11   0.286E+00 -.133E-14 -.805E+02   -.748E-01 0.420E-11 0.195E+02
 
 
 POSITION                                       TOTAL-FORCE (eV/Angst)
 -----------------------------------------------------------------------------------
      1.60107      3.23512      4.85268        -0.014820     -0.000000     -0.287376
      4.80320      3.23512      4.85268        -0.004332     -0.000000     -0.300075
      1.60107      0.00000      1.61756        -0.018823     -0.000000     -0.934619
      4.80320      0.00000      1.61756         0.012472     -0.000000     -0.922666
      0.00000      3.23512      1.61756         0.021945     -0.000000      1.603270
      3.20213      3.23512      1.61756        -0.004507     -0.000000      1.620274
      0.00000      0.00000      4.85268        -0.011817     -0.000000     -0.259902
      3.20213      0.00000      4.85268        -0.006258     -0.000000     -0.265015
      1.60734      3.23512     11.35406         0.002683     -0.000000      0.016986
      4.80575      3.23512     11.33885         0.007287     -0.000000      0.011339
      1.60077     -0.00000      8.06976         0.005083     -0.000000      0.004127
      4.82637     -0.00000      8.08973        -0.008139     -0.000000     -0.010007
     12.80456      3.23512      8.09730         0.012430     -0.000000      0.000474
      3.20412      3.23512      8.09109         0.006146     -0.000000      0.009805
     -0.00583     -0.00000     11.26026         0.009104     -0.000000     -0.007032
      3.20184     -0.00000     11.24951        -0.005186     -0.000000     -0.006131
      0.00000      3.23512      3.61324        -0.022397     -0.000000     -0.128912
      3.20213      3.23512      3.61324         0.016547     -0.000000     -0.159320
      0.00000      0.00000      0.37812        -0.002059     -0.000000      0.800598
      3.20213      0.00000      0.37812        -0.000623     -0.000000      0.793384
      1.60107      5.23080      4.85268        -0.049192     -0.014550     -0.028353
      4.80320      5.23080      4.85268         0.062801     -0.022733     -0.039417
      1.60107      1.99568      1.61756        -0.050194     -0.040746     -0.692939
      4.80320      1.99568      1.61756         0.054146     -0.047941     -0.692250
      0.00000      3.23512      6.09212         0.038135     -0.000000      0.330917
      3.20213      3.23512      6.09212        -0.013185     -0.000000      0.313266
      0.00000      0.00000      2.85700        -0.010412     -0.000000      0.207520
      3.20213      0.00000      2.85700         0.002422     -0.000000      0.215357
      1.60107      1.23944      4.85268        -0.049192      0.014550     -0.028353
      4.80320      1.23944      4.85268         0.062801      0.022733     -0.039417
      1.60107      4.47456      1.61756        -0.050194      0.040746     -0.692939
      4.80320      4.47456      1.61756         0.054146      0.047941     -0.692250
      0.04699      3.23512     10.06135        -0.018840     -0.000000      0.020734
      3.20247      3.23512     10.07982        -0.006361     -0.000000     -0.006516
     12.80036     -0.00000      6.84368        -0.013522     -0.000000     -0.000186
      3.20888     -0.00000      6.84222         0.002510     -0.000000      0.003580
      1.60506      5.24276     11.40114        -0.008701      0.004782     -0.007479
      4.79528      5.23365     11.36239         0.002667     -0.003982      0.002963
      1.59986      1.99513      8.07511         0.004773     -0.000927      0.001191
      4.81037      1.99248      8.07435        -0.008320      0.004772      0.016424
     12.80338      3.23512     12.53411         0.014932     -0.000000     -0.005323
      3.21542      3.23512     12.51783         0.006453     -0.000000      0.015581
      0.00071     -0.00000      9.30576        -0.017260     -0.000000      0.004632
      3.20569     -0.00000      9.29994        -0.009108     -0.000000      0.004604
      1.60506      1.22749     11.40114        -0.008701     -0.004782     -0.007479
      4.79528      1.23659     11.36239         0.002667      0.003982      0.002963
      1.59986      4.47511      8.07511         0.004773      0.000927      0.001191
      4.81037      4.47776      8.07435        -0.008320     -0.004772      0.016424
      8.00533      3.23512      4.85268         0.052746     -0.000000     -0.281570
     11.20747      3.23512      4.85268        -0.053684     -0.000000     -0.289000
      8.00533      0.00000      1.61756        -0.029580     -0.000000     -0.915056
     11.20747      0.00000      1.61756         0.032263     -0.000000     -0.927808
      6.40427      3.23512      1.61756        -0.018437     -0.000000      1.592999
      9.60640      3.23512      1.61756        -0.004977     -0.000000      1.468271
      6.40427      0.00000      4.85268         0.003101     -0.000000     -0.181409
      9.60640      0.00000      4.85268         0.023614     -0.000000     -0.153029
      7.99081      3.23512     11.32104        -0.002182     -0.000000      0.012353
     11.22339      3.23512     11.34747         0.013485     -0.000000      0.035714
      8.00671     -0.00000      8.11075        -0.003184     -0.000000     -0.027019
     11.18722     -0.00000      8.09851         0.008389     -0.000000     -0.018199
      6.41013      3.23512      8.09030         0.014696     -0.000000      0.015241
      9.60672      3.23512      8.11282         0.006740     -0.000000     -0.003717
      6.40874     -0.00000     11.45434        -0.004381     -0.000000     -0.010316
      9.60518     -0.00000     11.46815         0.010055     -0.000000      0.014133
      6.40427      3.23512      3.61324         0.013734     -0.000000     -0.151172
      9.60640      3.23512      3.61324        -0.015238     -0.000000     -0.012269
      6.40427      0.00000      0.37812         0.002544     -0.000000      0.795980
      9.60640      0.00000      0.37812        -0.000260     -0.000000      0.798163
      8.00533      5.23080      4.85268        -0.059267     -0.042189     -0.040662
     11.20747      5.23080      4.85268         0.047894     -0.029086     -0.030040
      8.00533      1.99568      1.61756        -0.038910     -0.047499     -0.690688
     11.20747      1.99568      1.61756         0.035618     -0.046911     -0.689136
      6.40427      3.23512      6.09212        -0.023089     -0.000000      0.232781
      9.60640      3.23512      6.09212         0.026476     -0.000000      0.470849
      6.40427      0.00000      2.85700         0.011269     -0.000000      0.224841
      9.60640      0.00000      2.85700        -0.008869     -0.000000      0.249176
      8.00533      1.23944      4.85268        -0.059267      0.042189     -0.040662
     11.20747      1.23944      4.85268         0.047894      0.029086     -0.030040
      8.00533      4.47456      1.61756        -0.038910      0.047499     -0.690688
     11.20747      4.47456      1.61756         0.035618      0.046911     -0.689136
      6.35781      3.23512     10.04702        -0.000634     -0.000000      0.000167
      9.60943      3.23512     10.12734         0.015349     -0.000000      0.025906
      6.41136     -0.00000      6.85261         0.003494     -0.000000     -0.009218
      9.60246     -0.00000      6.85322        -0.004119     -0.000000      0.011983
      8.00929      5.22664     11.33210         0.005805     -0.002544      0.019305
     11.21595      5.22538     11.40066        -0.006168     -0.003334      0.012501
      8.00629      1.99083      8.10753        -0.007952      0.006900      0.013005
     11.20554      1.99345      8.11121        -0.006836      0.003316      0.005976
      6.41776      3.23512     12.50258        -0.019592     -0.000000      0.011036
      6.40192     -0.00000      9.35599         0.020312     -0.000000      0.001257
      9.61009     -0.00000      9.36739         0.002569     -0.000000      0.005583
      8.00929      1.24360     11.33210         0.005805      0.002544      0.019305
     11.21595      1.24486     11.40066        -0.006168      0.003334      0.012501
      8.00629      4.47941      8.10753        -0.007952     -0.006900      0.013005
     11.20554      4.47679      8.11121        -0.006836     -0.003316      0.005976
      9.58626     -0.00000     13.27185         0.030916     -0.000000     -0.001399
      6.43215     -0.00000     13.25269        -0.030354     -0.000000      0.010582
 -----------------------------------------------------------------------------------
    total drift:                                0.031706      0.000000      0.159529


--------------------------------------------------------------------------------------------------------



  FREE ENERGIE OF THE ION-ELECTRON SYSTEM (eV)
  ---------------------------------------------------
  free  energy   TOTEN  =      -619.59740984 eV

  energy  without entropy=     -619.52568407  energy(sigma->0) =     -619.56154695
 
 d Force = 0.5751872E-03[ 0.257E-03, 0.894E-03]  d Energy = 0.6677357E-03-0.925E-04
 d Force = 0.3961339E+02[ 0.396E+02, 0.396E+02]  d Ewald  = 0.3961339E+02-0.153E-05


--------------------------------------------------------------------------------------------------------


    POTLOK:  cpu time    0.1218: real time    0.1230


--------------------------------------------------------------------------------------------------------


 stress matrix after NEB project (eV)
    -19.21352      0.00000     -0.40965
      0.00000     -9.00553      0.00000
     -0.40965      0.00000     -4.95794
  FORCES: max atom, RMS     0.038175    0.012071
  FORCE total and by dimension    0.118889    0.035714
  Stress total and by dimension   21.798529   19.213523
 Conjugate gradient step on ions:
 trial-energy change:   -0.000668  1 .order   -0.000575   -0.000894   -0.000257
  (g-gl).g = 0.984E-03      g.g   = 0.130E-02  gl.gl    = 0.201E-02
 g(Force)  = 0.130E-02   g(Stress)= 0.000E+00 ortho     = 0.513E-04
 gamma     =   0.48844
 trial     =   0.67208
 opt step  =   0.80456  (harmonic =   0.94277) maximal distance =0.00289771
 next E    =  -619.597436   (d E  =  -0.00069)


--------------------------------------------------------------------------------------------------------


  
 reached required accuracy - stopping structural energy minimisation
     LOOP+:  cpu time   66.4344: real time   66.6620
    4ORBIT:  cpu time    0.0000: real time    0.0000

 total amount of memory used by VASP MPI-rank0   128678. kBytes
=======================================================================

   base      :      30000. kBytes
   nonlr-proj:       5867. kBytes
   fftplans  :       3841. kBytes
   grid      :      10919. kBytes
   one-center:        311. kBytes
   wavefun   :      77740. kBytes
 
  
  
 General timing and accounting informations for this job:
 ========================================================
  
                  Total CPU time used (sec):     2565.871
                            User time (sec):     2487.413
                          System time (sec):       78.458
                         Elapsed time (sec):     2575.638
  
                   Maximum memory used (kb):      206516.
                   Average memory used (kb):           0.
  
                          Minor page faults:       216327
                          Major page faults:          183
                 Voluntary context switches:         4219
