       N       E                     dE             d eps       ncg     rms          rms(c)
DAV:   1     0.775598463900E+04    0.77560E+04   -0.31310E+05  7208   0.137E+03
DAV:   2     0.536676132870E+03   -0.72193E+04   -0.66345E+04  7536   0.401E+02
DAV:   3    -0.704501772451E+03   -0.12412E+04   -0.11828E+04  9048   0.172E+02
DAV:   4    -0.776917888625E+03   -0.72416E+02   -0.70149E+02  9120   0.425E+01
DAV:   5    -0.779207892737E+03   -0.22900E+01   -0.22583E+01  9144   0.764E+00    0.178E+02
RMM:   6    -0.671879443742E+03    0.10733E+03   -0.75672E+02  7210   0.406E+01    0.127E+02
RMM:   7    -0.110838833258E+04   -0.43651E+03   -0.43978E+02  7597   0.231E+01    0.330E+02
RMM:   8    -0.922643429531E+03    0.18574E+03   -0.41398E+01  7405   0.116E+01    0.268E+02
RMM:   9    -0.844738866029E+03    0.77905E+02   -0.14834E+02  7208   0.168E+01    0.241E+02
RMM:  10    -0.822325239356E+03    0.22414E+02   -0.82281E+01  7350   0.120E+01    0.153E+02
RMM:  11    -0.679350188115E+03    0.14298E+03   -0.17067E+01  7341   0.629E+00    0.103E+02
RMM:  12    -0.612679448325E+03    0.66671E+02   -0.66145E+01  7169   0.121E+01    0.488E+01
RMM:  13    -0.601296594691E+03    0.11383E+02   -0.15302E+01  7278   0.516E+00    0.310E+01
RMM:  14    -0.607644609471E+03   -0.63480E+01   -0.47468E+00  7196   0.340E+00    0.370E+01
RMM:  15    -0.607868204270E+03   -0.22359E+00   -0.29406E+00  7184   0.257E+00    0.259E+01
RMM:  16    -0.612342898366E+03   -0.44747E+01   -0.20869E+00  7176   0.221E+00    0.257E+01
RMM:  17    -0.618492821025E+03   -0.61499E+01   -0.29297E+00  7176   0.250E+00    0.220E+01
RMM:  18    -0.625837389323E+03   -0.73446E+01   -0.42718E+00  7178   0.304E+00    0.174E+01
RMM:  19    -0.630999630198E+03   -0.51622E+01   -0.44910E+00  7179   0.292E+00    0.155E+01
RMM:  20    -0.632050361470E+03   -0.10507E+01   -0.62490E-01  7228   0.122E+00    0.136E+01
RMM:  21    -0.633490388903E+03   -0.14400E+01   -0.75485E-01  7172   0.110E+00    0.121E+01
RMM:  22    -0.634513032513E+03   -0.10226E+01   -0.53208E-01  7168   0.877E-01    0.124E+01
RMM:  23    -0.634462508548E+03    0.50524E-01   -0.43565E-01  7177   0.821E-01    0.962E+00
RMM:  24    -0.634234877113E+03    0.22763E+00   -0.39502E-01  7173   0.800E-01    0.829E+00
RMM:  25    -0.634308133835E+03   -0.73257E-01   -0.64411E-02  7218   0.381E-01    0.767E+00
RMM:  26    -0.634389475048E+03   -0.81341E-01   -0.14989E-01  7172   0.530E-01    0.722E+00
RMM:  27    -0.634920651050E+03   -0.53118E+00   -0.21574E-01  7177   0.639E-01    0.665E+00
RMM:  28    -0.635367205508E+03   -0.44655E+00   -0.15754E-01  7168   0.567E-01    0.581E+00
RMM:  29    -0.635963551737E+03   -0.59635E+00   -0.12316E-01  7168   0.458E-01    0.490E+00
RMM:  30    -0.636378733642E+03   -0.41518E+00   -0.99425E-02  7169   0.422E-01    0.464E+00
RMM:  31    -0.636976041674E+03   -0.59731E+00   -0.15226E-01  7168   0.508E-01    0.388E+00
RMM:  32    -0.637255662151E+03   -0.27962E+00   -0.16647E-01  7168   0.471E-01    0.313E+00
RMM:  33    -0.637354846543E+03   -0.99184E-01   -0.41018E-02  7261   0.250E-01    0.286E+00
RMM:  34    -0.637454699018E+03   -0.99852E-01   -0.12540E-02  7219   0.159E-01    0.251E+00
RMM:  35    -0.637538262070E+03   -0.83563E-01   -0.12693E-02  7190   0.154E-01    0.216E+00
RMM:  36    -0.637577267922E+03   -0.39006E-01   -0.15341E-02  7176   0.168E-01    0.177E+00
RMM:  37    -0.637550929438E+03    0.26338E-01   -0.10151E-02  7190   0.143E-01    0.157E+00
RMM:  38    -0.637515263060E+03    0.35666E-01   -0.83405E-03  7205   0.130E-01    0.140E+00
RMM:  39    -0.637497633488E+03    0.17630E-01   -0.67664E-03  7185   0.118E-01    0.128E+00
RMM:  40    -0.637465315631E+03    0.32318E-01   -0.10845E-02  7175   0.147E-01    0.109E+00
RMM:  41    -0.637437779042E+03    0.27537E-01   -0.10140E-02  7198   0.142E-01    0.989E-01
RMM:  42    -0.637450294170E+03   -0.12515E-01   -0.47680E-03  7274   0.969E-02    0.989E-01
RMM:  43    -0.637462653332E+03   -0.12359E-01   -0.26222E-03  7233   0.680E-02    0.958E-01
RMM:  44    -0.637475100907E+03   -0.12448E-01   -0.59093E-03  7169   0.104E-01    0.871E-01
RMM:  45    -0.637507967797E+03   -0.32867E-01   -0.34221E-03  7233   0.790E-02    0.758E-01
RMM:  46    -0.637557595567E+03   -0.49628E-01   -0.13483E-03  7175   0.587E-02    0.605E-01
RMM:  47    -0.637604257913E+03   -0.46662E-01   -0.15778E-03  7164   0.524E-02    0.468E-01
RMM:  48    -0.637670901853E+03   -0.66644E-01   -0.31001E-03  7168   0.716E-02    0.351E-01
RMM:  49    -0.637721614153E+03   -0.50712E-01   -0.15442E-03  7101   0.515E-02    0.260E-01
RMM:  50    -0.637792154369E+03   -0.70540E-01   -0.25628E-03  7117   0.597E-02    0.195E-01
RMM:  51    -0.637858865564E+03   -0.66711E-01   -0.23040E-03  7108   0.544E-02    0.108E-01
RMM:  52    -0.637880330625E+03   -0.21465E-01   -0.55545E-04  6708   0.260E-02    0.823E-02
RMM:  53    -0.637905119147E+03   -0.24789E-01   -0.32878E-04  6511   0.219E-02    0.622E-02
RMM:  54    -0.637919449630E+03   -0.14330E-01   -0.13287E-04  5720   0.145E-02    0.488E-02
RMM:  55    -0.637927359575E+03   -0.79099E-02   -0.56480E-05  5100   0.998E-03    0.398E-02
RMM:  56    -0.637929881348E+03   -0.25218E-02   -0.25300E-05  4579   0.738E-03    0.288E-02
RMM:  57    -0.637934276550E+03   -0.43952E-02   -0.19518E-05  4446   0.637E-03    0.250E-02
RMM:  58    -0.637938300701E+03   -0.40242E-02   -0.24293E-05  4559   0.648E-03    0.222E-02
RMM:  59    -0.637941692572E+03   -0.33919E-02   -0.30359E-05  4649   0.661E-03    0.207E-02
RMM:  60    -0.637943576704E+03   -0.18841E-02   -0.22187E-05  4458   0.516E-03
   1 F= -.63794358E+03 E0= -.63791453E+03  d E =-.637944E+03  mag=     4.1051
       N       E                     dE             d eps       ncg     rms          rms(c)
DAV:   1    -0.637946271790E+03   -0.45792E-02   -0.19404E+00  7344   0.196E+00    0.275E-01
RMM:   2    -0.637950551979E+03   -0.42802E-02   -0.37852E-02  7086   0.272E-01    0.147E-01
RMM:   3    -0.637951387354E+03   -0.83538E-03   -0.13614E-03  7020   0.714E-02    0.208E-01
RMM:   4    -0.637951349049E+03    0.38306E-04   -0.21094E-04  6828   0.196E-02    0.180E-01
RMM:   5    -0.637951347151E+03    0.18975E-05   -0.75201E-05  6068   0.148E-02
   2 F= -.63795135E+03 E0= -.63792227E+03  d E =-.777045E-02  mag=     4.1020
       N       E                     dE             d eps       ncg     rms          rms(c)
DAV:   1    -0.637952613833E+03   -0.12648E-02   -0.19708E+00  7280   0.202E+00    0.291E-01
RMM:   2    -0.637958423693E+03   -0.58099E-02   -0.39376E-02  7168   0.290E-01    0.502E-01
RMM:   3    -0.637958859987E+03   -0.43629E-03   -0.18806E-03  7207   0.822E-02    0.504E-01
RMM:   4    -0.637957628256E+03    0.12317E-02   -0.54898E-04  7143   0.411E-02    0.255E-01
RMM:   5    -0.637957390589E+03    0.23767E-03   -0.19789E-04  6852   0.230E-02    0.137E-01
RMM:   6    -0.637957502048E+03   -0.11146E-03   -0.12674E-04  6524   0.168E-02    0.114E-01
RMM:   7    -0.637957688110E+03   -0.18606E-03   -0.11209E-04  6467   0.157E-02    0.638E-02
RMM:   8    -0.637957797106E+03   -0.10900E-03   -0.28844E-05  4766   0.876E-03    0.363E-02
RMM:   9    -0.637957846831E+03   -0.49725E-04   -0.72007E-06  3932   0.597E-03    0.223E-02
RMM:  10    -0.637957876790E+03   -0.29958E-04   -0.21042E-06  3629   0.326E-03    0.972E-03
RMM:  11    -0.637957952272E+03   -0.75482E-04   -0.18312E-06  3424   0.214E-03    0.113E-02
RMM:  12    -0.637958025662E+03   -0.73390E-04   -0.11017E-06  3382   0.199E-03    0.600E-03
RMM:  13    -0.637958098384E+03   -0.72722E-04   -0.84881E-07  2857   0.151E-03    0.491E-03
RMM:  14    -0.637958136294E+03   -0.37910E-04   -0.31666E-07  1770   0.115E-03    0.362E-03
RMM:  15    -0.637958174203E+03   -0.37908E-04   -0.22601E-07  1301   0.101E-03    0.320E-03
RMM:  16    -0.637958243936E+03   -0.69733E-04   -0.48316E-07  1774   0.113E-03    0.303E-03
RMM:  17    -0.637958391148E+03   -0.14721E-03   -0.20381E-06  3061   0.156E-03    0.288E-03
RMM:  18    -0.637958497265E+03   -0.10612E-03   -0.21629E-06  2698   0.146E-03    0.254E-03
RMM:  19    -0.637958543572E+03   -0.46307E-04   -0.14241E-06  2476   0.138E-03    0.204E-03
RMM:  20    -0.637958562863E+03   -0.19291E-04   -0.92820E-07  2136   0.130E-03    0.225E-03
RMM:  21    -0.637958567423E+03   -0.45601E-05   -0.87689E-07  2104   0.127E-03
   3 F= -.63795857E+03 E0= -.63792955E+03  d E =-.722027E-02  mag=     4.0814
       N       E                     dE             d eps       ncg     rms          rms(c)
DAV:   1    -0.637949491041E+03    0.90718E-02   -0.88003E+00  7336   0.424E+00    0.588E-01
RMM:   2    -0.637968011862E+03   -0.18521E-01   -0.17440E-01  7123   0.597E-01    0.379E-01
RMM:   3    -0.637973121860E+03   -0.51100E-02   -0.66490E-03  7171   0.158E-01    0.776E-01
RMM:   4    -0.637970293448E+03    0.28284E-02   -0.13205E-03  7256   0.547E-02    0.452E-01
RMM:   5    -0.637969398710E+03    0.89474E-03   -0.43319E-04  7056   0.371E-02    0.246E-01
RMM:   6    -0.637969434125E+03   -0.35415E-04   -0.30557E-04  7001   0.247E-02    0.230E-01
RMM:   7    -0.637969283107E+03    0.15102E-03   -0.36935E-04  7000   0.272E-02    0.143E-01
RMM:   8    -0.637969254493E+03    0.28614E-04   -0.13349E-04  6570   0.179E-02    0.965E-02
RMM:   9    -0.637969191186E+03    0.63307E-04   -0.26478E-05  4636   0.913E-03    0.303E-02
RMM:  10    -0.637969184418E+03    0.67677E-05   -0.85110E-06  3847   0.601E-03
   4 F= -.63796918E+03 E0= -.63794028E+03  d E =-.106170E-01  mag=     4.0790
       N       E                     dE             d eps       ncg     rms          rms(c)
DAV:   1    -0.637951309193E+03    0.17882E-01   -0.12018E+01  7216   0.492E+00    0.686E-01
RMM:   2    -0.637977092124E+03   -0.25783E-01   -0.24067E-01  7129   0.688E-01    0.392E-01
RMM:   3    -0.637979726885E+03   -0.26348E-02   -0.86426E-03  7163   0.180E-01    0.425E-01
RMM:   4    -0.637981198709E+03   -0.14718E-02   -0.14042E-03  7394   0.501E-02    0.644E-01
RMM:   5    -0.637978764165E+03    0.24345E-02   -0.38813E-04  6972   0.340E-02    0.209E-01
RMM:   6    -0.637978956195E+03   -0.19203E-03   -0.30725E-04  7042   0.265E-02    0.234E-01
RMM:   7    -0.637978835431E+03    0.12076E-03   -0.39098E-04  7081   0.279E-02    0.150E-01
RMM:   8    -0.637978792179E+03    0.43252E-04   -0.11880E-04  6634   0.178E-02    0.938E-02
RMM:   9    -0.637978746985E+03    0.45194E-04   -0.24072E-05  4624   0.874E-03    0.393E-02
RMM:  10    -0.637978747931E+03   -0.94631E-06   -0.89391E-06  3906   0.622E-03
   5 F= -.63797875E+03 E0= -.63794989E+03  d E =-.956351E-02  mag=     4.0759
       N       E                     dE             d eps       ncg     rms          rms(c)
DAV:   1    -0.637971938907E+03    0.68081E-02   -0.48416E+00  7280   0.312E+00    0.439E-01
RMM:   2    -0.637982171377E+03   -0.10232E-01   -0.95629E-02  7111   0.437E-01    0.270E-01
RMM:   3    -0.637985104160E+03   -0.29328E-02   -0.36473E-03  7172   0.115E-01    0.569E-01
RMM:   4    -0.637983536165E+03    0.15680E-02   -0.75486E-04  7268   0.406E-02    0.339E-01
RMM:   5    -0.637982917405E+03    0.61876E-03   -0.23386E-04  6782   0.275E-02    0.144E-01
RMM:   6    -0.637982911313E+03    0.60918E-05   -0.12261E-04  6491   0.160E-02    0.108E-01
RMM:   7    -0.637982920838E+03   -0.95257E-05   -0.13918E-04  6618   0.165E-02    0.967E-02
RMM:   8    -0.637982901695E+03    0.19143E-04   -0.39907E-05  5256   0.106E-02    0.571E-02
RMM:   9    -0.637982883051E+03    0.18644E-04   -0.10468E-05  3921   0.679E-03    0.225E-02
RMM:  10    -0.637982883484E+03   -0.43258E-06   -0.30088E-06  3754   0.369E-03
   6 F= -.63798288E+03 E0= -.63795410E+03  d E =-.413555E-02  mag=     4.0726
       N       E                     dE             d eps       ncg     rms          rms(c)
DAV:   1    -0.637981750086E+03    0.11330E-02   -0.10449E+00  7296   0.146E+00    0.215E-01
RMM:   2    -0.637984057593E+03   -0.23075E-02   -0.21430E-02  7084   0.212E-01    0.152E-01
RMM:   3    -0.637984861740E+03   -0.80415E-03   -0.91144E-04  7128   0.566E-02    0.306E-01
RMM:   4    -0.637984358581E+03    0.50316E-03   -0.18133E-04  6803   0.208E-02    0.157E-01
RMM:   5    -0.637984277486E+03    0.81095E-04   -0.61505E-05  5827   0.140E-02    0.104E-01
RMM:   6    -0.637984250869E+03    0.26617E-04   -0.27569E-05  4744   0.880E-03    0.754E-02
RMM:   7    -0.637984268147E+03   -0.17278E-04   -0.65093E-05  5860   0.124E-02    0.595E-02
RMM:   8    -0.637984264864E+03    0.32834E-05   -0.28906E-05  4780   0.913E-03
   7 F= -.63798426E+03 E0= -.63795546E+03  d E =-.138138E-02  mag=     4.0706
       N       E                     dE             d eps       ncg     rms          rms(c)
DAV:   1    -0.637982456284E+03    0.18119E-02   -0.12512E+00  7280   0.162E+00    0.225E-01
RMM:   2    -0.637985132142E+03   -0.26759E-02   -0.25446E-02  7103   0.234E-01    0.144E-01
RMM:   3    -0.637985532708E+03   -0.40057E-03   -0.99980E-04  7124   0.615E-02    0.189E-01
RMM:   4    -0.637985613676E+03   -0.80968E-04   -0.18378E-04  6942   0.193E-02    0.214E-01
RMM:   5    -0.637985341357E+03    0.27232E-03   -0.60653E-05  5924   0.137E-02    0.800E-02
RMM:   6    -0.637985330504E+03    0.10853E-04   -0.26928E-05  4722   0.937E-03    0.626E-02
RMM:   7    -0.637985329694E+03    0.80956E-06   -0.42880E-05  5269   0.106E-02
   8 F= -.63798533E+03 E0= -.63795659E+03  d E =-.106483E-02  mag=     4.0696
       N       E                     dE             d eps       ncg     rms          rms(c)
DAV:   1    -0.637981803880E+03    0.35266E-02   -0.20522E+00  7184   0.204E+00    0.286E-01
RMM:   2    -0.637986330859E+03   -0.45270E-02   -0.40742E-02  7167   0.288E-01    0.238E-01
RMM:   3    -0.637987531548E+03   -0.12007E-02   -0.19142E-03  7194   0.817E-02    0.399E-01
RMM:   4    -0.637986691037E+03    0.84051E-03   -0.36817E-04  7109   0.314E-02    0.218E-01
RMM:   5    -0.637986469469E+03    0.22157E-03   -0.87869E-05  6302   0.158E-02    0.114E-01
RMM:   6    -0.637986436273E+03    0.33196E-04   -0.59653E-05  5595   0.122E-02    0.884E-02
RMM:   7    -0.637986440248E+03   -0.39745E-05   -0.70506E-05  6058   0.126E-02
   9 F= -.63798644E+03 E0= -.63795765E+03  d E =-.111055E-02  mag=     4.0685
