 vasp.5.4.4.18Apr17-6-g9f103f2a35 (build Feb 25 2019 10:51:38) complex          
  
 executed on             LinuxIFC date 2022.11.22  09:23:49
 running on   40 total cores
 distrk:  each k-point on   40 cores,    1 groups
 distr:  one band on NCORES_PER_BAND=  10 cores,    4 groups


--------------------------------------------------------------------------------------------------------


 INCAR:
 POTCAR:    PAW_PBE Ir 06Sep2000                  
 POTCAR:    PAW_PBE O 08Apr2002                   
 POTCAR:    PAW_PBE Ir 06Sep2000                  
 POTCAR:    PAW_PBE O 08Apr2002                   
 POTCAR:    PAW_PBE Ir 06Sep2000                  
   VRHFIN =Ir: s1d8                                                             
   LEXCH  = PE                                                                  
   EATOM  =   560.1833 eV,   41.1723 Ry                                         
                                                                                
   TITEL  = PAW_PBE Ir 06Sep2000                                                
   LULTRA =        F    use ultrasoft PP ?                                      
   IUNSCR =        1    unscreen: 0-lin 1-nonlin 2-no                           
   RPACOR =    2.250    partial core radius                                     
   POMASS =  192.220; ZVAL   =    9.000    mass and valenz                      
   RCORE  =    2.600    outmost cutoff radius                                   
   RWIGS  =    2.690; RWIGS  =    1.423    wigner-seitz radius (au A)           
   ENMAX  =  210.864; ENMIN  =  158.148 eV                                      
   RCLOC  =    1.857    cutoff for local pot                                    
   LCOR   =        T    correct aug charges                                     
   LPAW   =        T    paw PP                                                  
   EAUG   =  318.962                                                            
   DEXC   =    0.000                                                            
   RMAX   =    2.667    core radius for proj-oper                               
   RAUG   =    1.300    factor for augmentation sphere                          
   RDEP   =    2.748    radius for radial grids                                 
   RDEPT  =    2.300    core radius for aug-charge                              
                                                                                
   Atomic configuration                                                         
   16 entries                                                                   
     n  l   j            E        occ.                                          
     1  0  0.50    -76100.0449   2.0000                                         
     2  0  0.50    -13308.1683   2.0000                                         
     2  1  1.50    -11558.0021   6.0000                                         
     3  0  0.50     -3110.7274   2.0000                                         
     3  1  1.50     -2599.2109   6.0000                                         
     3  2  2.50     -2037.1515  10.0000                                         
     4  0  0.50      -661.6001   2.0000                                         
     4  1  1.50      -493.8981   6.0000                                         
     4  2  2.50      -288.1909  10.0000                                         
     4  3  3.50       -59.5718  14.0000                                         
     5  0  0.50       -95.3879   2.0000                                         
     5  1  1.50       -52.2747   6.0000                                         
     5  2  2.50        -5.4180   8.0000                                         
     6  0  0.50        -5.5479   1.0000                                         
     6  1  1.50        -6.8029   0.0000                                         
     5  3  2.50        -1.3606   0.0000                                         
   Description                                                                  
     l       E           TYP  RCUT    TYP  RCUT                                 
     2     -5.4179967     23  2.600                                             
     2     -6.7785793     23  2.600                                             
     0     -5.5478636     23  2.600                                             
     0      2.2542272     23  2.600                                             
     1     -2.7211652     23  2.600                                             
     1     20.4087390     23  2.600                                             
  local pseudopotential read in
  partial core-charges read in
  partial kinetic energy density read in
  atomic valenz-charges read in
  non local Contribution for L=           2  read in
    real space projection operators read in
  non local Contribution for L=           2  read in
    real space projection operators read in
  non local Contribution for L=           0  read in
    real space projection operators read in
  non local Contribution for L=           0  read in
    real space projection operators read in
  non local Contribution for L=           1  read in
    real space projection operators read in
  non local Contribution for L=           1  read in
    real space projection operators read in
    PAW grid and wavefunctions read in
 
   number of l-projection  operators is LMAX  =           6
   number of lm-projection operators is LMMAX =          18
 
 POTCAR:    PAW_PBE O 08Apr2002                   
   VRHFIN =O: s2p4                                                              
   LEXCH  = PE                                                                  
   EATOM  =   432.3788 eV,   31.7789 Ry                                         
                                                                                
   TITEL  = PAW_PBE O 08Apr2002                                                 
   LULTRA =        F    use ultrasoft PP ?                                      
   IUNSCR =        1    unscreen: 0-lin 1-nonlin 2-no                           
   RPACOR =    1.200    partial core radius                                     
   POMASS =   16.000; ZVAL   =    6.000    mass and valenz                      
   RCORE  =    1.520    outmost cutoff radius                                   
   RWIGS  =    1.550; RWIGS  =    0.820    wigner-seitz radius (au A)           
   ENMAX  =  400.000; ENMIN  =  300.000 eV                                      
   ICORE  =        2    local potential                                         
   LCOR   =        T    correct aug charges                                     
   LPAW   =        T    paw PP                                                  
   EAUG   =  605.392                                                            
   DEXC   =    0.000                                                            
   RMAX   =    1.553    core radius for proj-oper                               
   RAUG   =    1.300    factor for augmentation sphere                          
   RDEP   =    1.550    radius for radial grids                                 
   RDEPT  =    1.329    core radius for aug-charge                              
                                                                                
   Atomic configuration                                                         
    4 entries                                                                   
     n  l   j            E        occ.                                          
     1  0  0.50      -514.6923   2.0000                                         
     2  0  0.50       -23.9615   2.0000                                         
     2  1  0.50        -9.0305   4.0000                                         
     3  2  1.50        -9.5241   0.0000                                         
   Description                                                                  
     l       E           TYP  RCUT    TYP  RCUT                                 
     0    -23.9615318     23  1.200                                             
     0     -9.5240782     23  1.200                                             
     1     -9.0304911     23  1.520                                             
     1      8.1634956     23  1.520                                             
     2     -9.5240782      7  1.500                                             
  local pseudopotential read in
  partial core-charges read in
  partial kinetic energy density read in
  kinetic energy density of atom read in
  atomic valenz-charges read in
  non local Contribution for L=           0  read in
    real space projection operators read in
  non local Contribution for L=           0  read in
    real space projection operators read in
  non local Contribution for L=           1  read in
    real space projection operators read in
  non local Contribution for L=           1  read in
    real space projection operators read in
    PAW grid and wavefunctions read in
 
   number of l-projection  operators is LMAX  =           4
   number of lm-projection operators is LMMAX =           8
 
 POTCAR:    PAW_PBE Ir 06Sep2000                  
   VRHFIN =Ir: s1d8                                                             
   LEXCH  = PE                                                                  
   EATOM  =   560.1833 eV,   41.1723 Ry                                         
                                                                                
   TITEL  = PAW_PBE Ir 06Sep2000                                                
   LULTRA =        F    use ultrasoft PP ?                                      
   IUNSCR =        1    unscreen: 0-lin 1-nonlin 2-no                           
   RPACOR =    2.250    partial core radius                                     
   POMASS =  192.220; ZVAL   =    9.000    mass and valenz                      
   RCORE  =    2.600    outmost cutoff radius                                   
   RWIGS  =    2.690; RWIGS  =    1.423    wigner-seitz radius (au A)           
   ENMAX  =  210.864; ENMIN  =  158.148 eV                                      
   RCLOC  =    1.857    cutoff for local pot                                    
   LCOR   =        T    correct aug charges                                     
   LPAW   =        T    paw PP                                                  
   EAUG   =  318.962                                                            
   DEXC   =    0.000                                                            
   RMAX   =    2.667    core radius for proj-oper                               
   RAUG   =    1.300    factor for augmentation sphere                          
   RDEP   =    2.748    radius for radial grids                                 
   RDEPT  =    2.300    core radius for aug-charge                              
                                                                                
   Atomic configuration                                                         
   16 entries                                                                   
     n  l   j            E        occ.                                          
     1  0  0.50    -76100.0449   2.0000                                         
     2  0  0.50    -13308.1683   2.0000                                         
     2  1  1.50    -11558.0021   6.0000                                         
     3  0  0.50     -3110.7274   2.0000                                         
     3  1  1.50     -2599.2109   6.0000                                         
     3  2  2.50     -2037.1515  10.0000                                         
     4  0  0.50      -661.6001   2.0000                                         
     4  1  1.50      -493.8981   6.0000                                         
     4  2  2.50      -288.1909  10.0000                                         
     4  3  3.50       -59.5718  14.0000                                         
     5  0  0.50       -95.3879   2.0000                                         
     5  1  1.50       -52.2747   6.0000                                         
     5  2  2.50        -5.4180   8.0000                                         
     6  0  0.50        -5.5479   1.0000                                         
     6  1  1.50        -6.8029   0.0000                                         
     5  3  2.50        -1.3606   0.0000                                         
   Description                                                                  
     l       E           TYP  RCUT    TYP  RCUT                                 
     2     -5.4179967     23  2.600                                             
     2     -6.7785793     23  2.600                                             
     0     -5.5478636     23  2.600                                             
     0      2.2542272     23  2.600                                             
     1     -2.7211652     23  2.600                                             
     1     20.4087390     23  2.600                                             
  local pseudopotential read in
  partial core-charges read in
  partial kinetic energy density read in
  atomic valenz-charges read in
  non local Contribution for L=           2  read in
    real space projection operators read in
  non local Contribution for L=           2  read in
    real space projection operators read in
  non local Contribution for L=           0  read in
    real space projection operators read in
  non local Contribution for L=           0  read in
    real space projection operators read in
  non local Contribution for L=           1  read in
    real space projection operators read in
  non local Contribution for L=           1  read in
    real space projection operators read in
    PAW grid and wavefunctions read in
 
   number of l-projection  operators is LMAX  =           6
   number of lm-projection operators is LMMAX =          18
 
 POTCAR:    PAW_PBE O 08Apr2002                   
   VRHFIN =O: s2p4                                                              
   LEXCH  = PE                                                                  
   EATOM  =   432.3788 eV,   31.7789 Ry                                         
                                                                                
   TITEL  = PAW_PBE O 08Apr2002                                                 
   LULTRA =        F    use ultrasoft PP ?                                      
   IUNSCR =        1    unscreen: 0-lin 1-nonlin 2-no                           
   RPACOR =    1.200    partial core radius                                     
   POMASS =   16.000; ZVAL   =    6.000    mass and valenz                      
   RCORE  =    1.520    outmost cutoff radius                                   
   RWIGS  =    1.550; RWIGS  =    0.820    wigner-seitz radius (au A)           
   ENMAX  =  400.000; ENMIN  =  300.000 eV                                      
   ICORE  =        2    local potential                                         
   LCOR   =        T    correct aug charges                                     
   LPAW   =        T    paw PP                                                  
   EAUG   =  605.392                                                            
   DEXC   =    0.000                                                            
   RMAX   =    1.553    core radius for proj-oper                               
   RAUG   =    1.300    factor for augmentation sphere                          
   RDEP   =    1.550    radius for radial grids                                 
   RDEPT  =    1.329    core radius for aug-charge                              
                                                                                
   Atomic configuration                                                         
    4 entries                                                                   
     n  l   j            E        occ.                                          
     1  0  0.50      -514.6923   2.0000                                         
     2  0  0.50       -23.9615   2.0000                                         
     2  1  0.50        -9.0305   4.0000                                         
     3  2  1.50        -9.5241   0.0000                                         
   Description                                                                  
     l       E           TYP  RCUT    TYP  RCUT                                 
     0    -23.9615318     23  1.200                                             
     0     -9.5240782     23  1.200                                             
     1     -9.0304911     23  1.520                                             
     1      8.1634956     23  1.520                                             
     2     -9.5240782      7  1.500                                             
  local pseudopotential read in
  partial core-charges read in
  partial kinetic energy density read in
  kinetic energy density of atom read in
  atomic valenz-charges read in
  non local Contribution for L=           0  read in
    real space projection operators read in
  non local Contribution for L=           0  read in
    real space projection operators read in
  non local Contribution for L=           1  read in
    real space projection operators read in
  non local Contribution for L=           1  read in
    real space projection operators read in
    PAW grid and wavefunctions read in
 
   number of l-projection  operators is LMAX  =           4
   number of lm-projection operators is LMMAX =           8
 
 Optimization of the real space projectors (new method)

 maximal supplied QI-value         = 14.36
 optimisation between [QCUT,QGAM] = [ 11.35, 22.84] = [ 36.05,146.02] Ry 
 Optimized for a Real-space Cutoff    1.52 Angstroem

   l    n(q)    QCUT    max X(q) W(low)/X(q) W(high)/X(q)  e(spline) 
   2      9    11.346   134.116    0.47E-03    0.13E-03    0.92E-06
   2      9    11.346   130.192    0.47E-03    0.13E-03    0.92E-06
   0     10    11.346    60.310    0.74E-04    0.13E-03    0.69E-06
   0     10    11.346    39.218    0.68E-04    0.12E-03    0.65E-06
   1     10    11.346    18.439    0.15E-03    0.34E-04    0.20E-06
   1     10    11.346    12.760    0.12E-03    0.31E-04    0.16E-06
 Optimization of the real space projectors (new method)

 maximal supplied QI-value         = 24.76
 optimisation between [QCUT,QGAM] = [ 11.39, 22.77] = [ 36.31,145.25] Ry 
 Optimized for a Real-space Cutoff    1.00 Angstroem

   l    n(q)    QCUT    max X(q) W(low)/X(q) W(high)/X(q)  e(spline) 
   0      7    11.387    20.381    0.39E-03    0.13E-02    0.15E-06
   0      7    11.387    15.268    0.42E-03    0.14E-02    0.17E-06
   1      6    11.387     5.964    0.41E-03    0.11E-02    0.17E-06
   1      6    11.387     5.382    0.39E-03    0.87E-03    0.15E-06
 Optimization of the real space projectors (new method)

 maximal supplied QI-value         = 14.36
 optimisation between [QCUT,QGAM] = [ 11.35, 22.84] = [ 36.05,146.02] Ry 
 Optimized for a Real-space Cutoff    1.52 Angstroem

   l    n(q)    QCUT    max X(q) W(low)/X(q) W(high)/X(q)  e(spline) 
   2      9    11.346   134.116    0.47E-03    0.13E-03    0.92E-06
   2      9    11.346   130.192    0.47E-03    0.13E-03    0.92E-06
   0     10    11.346    60.310    0.74E-04    0.13E-03    0.69E-06
   0     10    11.346    39.218    0.68E-04    0.12E-03    0.65E-06
   1     10    11.346    18.439    0.15E-03    0.34E-04    0.20E-06
   1     10    11.346    12.760    0.12E-03    0.31E-04    0.16E-06
 Optimization of the real space projectors (new method)

 maximal supplied QI-value         = 24.76
 optimisation between [QCUT,QGAM] = [ 11.39, 22.77] = [ 36.31,145.25] Ry 
 Optimized for a Real-space Cutoff    1.00 Angstroem

   l    n(q)    QCUT    max X(q) W(low)/X(q) W(high)/X(q)  e(spline) 
   0      7    11.387    20.381    0.39E-03    0.13E-02    0.15E-06
   0      7    11.387    15.268    0.42E-03    0.14E-02    0.17E-06
   1      6    11.387     5.964    0.41E-03    0.11E-02    0.17E-06
   1      6    11.387     5.382    0.39E-03    0.87E-03    0.15E-06

 ----------------------------------------------------------------------------- 
|                                                                             |
|  ADVICE TO THIS USER RUNNING 'VASP/VAMP'   (HEAR YOUR MASTER'S VOICE ...):  |
|                                                                             |
|      You enforced a specific xc-type in the INCAR file,                     |
|      a different type was found on the POTCAR file                          |
|          I HOPE YOU KNOW, WHAT YOU ARE  DOING                               |
|                                                                             |
 ----------------------------------------------------------------------------- 

  PAW_PBE Ir 06Sep2000                  :
 energy of atom  1       EATOM= -560.1833
 kinetic energy error for atom=    0.0018 (will be added to EATOM!!)
  PAW_PBE O 08Apr2002                   :
 energy of atom  2       EATOM= -432.3788
 kinetic energy error for atom=    0.0224 (will be added to EATOM!!)
  PAW_PBE Ir 06Sep2000                  :
 energy of atom  3       EATOM= -560.1833
 kinetic energy error for atom=    0.0018 (will be added to EATOM!!)
  PAW_PBE O 08Apr2002                   :
 energy of atom  4       EATOM= -432.3788
 kinetic energy error for atom=    0.0224 (will be added to EATOM!!)
 
 
 POSCAR: Ir  O Ir  O                             
  positions in direct lattice
  velocities in cartesian coordinates
 exchange correlation table for  LEXCH =        9
   RHO(1)=    0.500       N(1)  =     2000
   RHO(2)=  100.500       N(2)  =     4000

 VTST: version 3.2, (02/03/18)

 CHAIN: initializing optimizer
 
 OPT: Using VASP QUASI-newton optimizer
 CHAIN: Read ICHAIN            0
 
 POSCAR: Ir  O Ir  O                             
  positions in direct lattice
  velocities in cartesian coordinates
 


--------------------------------------------------------------------------------------------------------


 ion  position               nearest neighbor table
   1  0.125  0.500  0.188-  21 2.00  29 2.00  17 2.02  25 2.02  26 2.02  18 2.02   2 3.20  52 3.20

   2  0.375  0.500  0.188-  22 2.00  30 2.00  26 2.02  18 2.02  67 2.02  75 2.02   1 3.20  51 3.20

   3  0.125  0.000  0.062-  23 2.00  31 2.00  19 2.02  27 2.02  28 2.02  20 2.02   4 3.20  54 3.20

   4  0.375  0.000  0.062-  24 2.00  32 2.00  28 2.02  20 2.02  69 2.02  77 2.02   3 3.20  53 3.20

   5  0.000  0.500  0.062-  17 2.00  23 2.02  31 2.02  74 2.02  82 2.02   6 3.20  56 3.20
   6  0.250  0.500  0.062-  18 2.00  23 2.02  24 2.02  31 2.02  32 2.02   5 3.20  55 3.20
   7  0.000  0.000  0.188-  27 2.00  35 2.00  29 2.02  21 2.02  72 2.02  80 2.02   8 3.20  58 3.20

   8  0.250  0.000  0.188-  28 2.00  36 2.00  21 2.02  29 2.02  30 2.02  22 2.02   7 3.20  57 3.20

   9  0.125  0.500  0.438-  41 1.99  42 1.99  37 2.00  45 2.00  33 2.03  34 2.03  60 3.20  10 3.21

  10  0.375  0.500  0.438-  42 1.99  91 1.99  46 2.00  38 2.00  83 2.04  34 2.04  59 3.20   9 3.21

  11  0.125  0.000  0.313-  39 1.99  47 1.99  35 2.03  36 2.03  43 2.03  44 2.03  62 3.20  12 3.20

  12  0.375  0.000  0.313-  40 1.99  48 1.99  93 2.02  36 2.03  85 2.03  44 2.03  11 3.20  61 3.20

  13  0.000  0.500  0.313-  33 1.99  25 2.01  90 2.03  98 2.03  39 2.03  47 2.03  14 3.20  64 3.20

  14  0.250  0.500  0.313-  34 1.98  26 2.01  40 2.03  48 2.03  47 2.03  39 2.03  63 3.20  13 3.20

  15  1.000  0.000  0.442-  50 1.80  45 2.03  37 2.03  88 2.03  96 2.03  43 2.09  16 3.21  66 3.21

  16  0.250  0.000  0.442-  49 1.80  45 2.03  37 2.03  46 2.03  38 2.03  44 2.09  15 3.21  65 3.21

  17  0.000  0.500  0.140-   5 2.00   1 2.02  52 2.02
  18  0.250  0.500  0.140-   6 2.00   2 2.02   1 2.02
  19  0.000  0.000  0.015-   3 2.02  54 2.02
  20  0.250  0.000  0.015-   3 2.02   4 2.02
  21  0.125  0.808  0.188-   1 2.00   7 2.02   8 2.02
  22  0.375  0.808  0.188-   2 2.00   8 2.02  57 2.02
  23  0.125  0.308  0.062-   3 2.00   5 2.02   6 2.02
  24  0.375  0.308  0.062-   4 2.00   6 2.02  55 2.02
  25  0.000  0.500  0.235-  13 2.01   1 2.02  52 2.02
  26  0.250  0.500  0.235-  14 2.01   2 2.02   1 2.02
  27  0.000  0.000  0.110-   7 2.00   3 2.02  54 2.02
  28  0.250  0.000  0.110-   8 2.00   4 2.02   3 2.02
  29  0.125  0.192  0.188-   1 2.00   7 2.02   8 2.02
  30  0.375  0.192  0.188-   2 2.00   8 2.02  57 2.02
  31  0.125  0.692  0.062-   3 2.00   5 2.02   6 2.02
  32  0.375  0.692  0.062-   4 2.00   6 2.02  55 2.02
  33  1.000  0.500  0.390-  13 1.99   9 2.03  60 2.04
  34  0.250  0.500  0.390-  14 1.98   9 2.03  10 2.04
  35  0.000  0.000  0.265-   7 2.00  62 2.02  11 2.03
  36  0.250  0.000  0.265-   8 2.00  12 2.03  11 2.03
  37  0.125  0.809  0.436-   9 2.00  15 2.03  16 2.03
  38  0.376  0.809  0.438-  10 2.00  65 2.03  16 2.03
  39  0.125  0.308  0.313-  11 1.99  13 2.03  14 2.03
  40  0.375  0.308  0.312-  12 1.99  63 2.03  14 2.03
  41  0.000  0.500  0.484-   9 1.99  60 1.99
  42  0.250  0.500  0.484-   9 1.99  10 1.99
  43  1.000  0.000  0.361-  62 2.03  11 2.03  15 2.09
  44  0.250  0.000  0.361-  12 2.03  11 2.03  16 2.09
  45  0.125  0.191  0.436-   9 2.00  15 2.03  16 2.03
  46  0.376  0.191  0.438-  10 2.00  65 2.03  16 2.03
  47  0.125  0.692  0.313-  11 1.99  13 2.03  14 2.03
  48  0.375  0.692  0.312-  12 1.99  63 2.03  14 2.03
  49  0.248  0.000  0.511-  16 1.80
  50  0.002  0.000  0.511-  15 1.80
  51  0.625  0.500  0.188-  71 2.00  79 2.00  67 2.02  75 2.02  76 2.02  68 2.02   2 3.20  52 3.20

  52  0.875  0.500  0.188-  72 2.00  80 2.00  68 2.02  17 2.02  76 2.02  25 2.02   1 3.20  51 3.20

  53  0.625  0.000  0.062-  73 2.00  81 2.00  69 2.02  77 2.02  78 2.02  70 2.02   4 3.20  54 3.20

  54  0.875  0.000  0.062-  74 2.00  82 2.00  70 2.02  19 2.02  78 2.02  27 2.02   3 3.20  53 3.20

  55  0.500  0.500  0.062-  67 2.00  32 2.02  24 2.02  73 2.02  81 2.02  56 3.20   6 3.20
  56  0.750  0.500  0.062-  68 2.00  73 2.02  74 2.02  81 2.02  82 2.02  55 3.20   5 3.20
  57  0.500  0.000  0.188-  77 2.00  85 2.00  71 2.02  22 2.02  79 2.02  30 2.02   8 3.20  58 3.20

  58  0.750  0.000  0.188-  78 2.00  86 2.00  71 2.02  79 2.02  80 2.02  72 2.02   7 3.20  57 3.20

  59  0.625  0.500  0.437-  91 1.98  92 1.98  87 2.00  95 2.00  84 2.03  83 2.03  60 3.20  10 3.20

  60  0.875  0.500  0.438-  41 1.99  92 1.99  88 2.00  96 2.00  33 2.04  84 2.04  59 3.20   9 3.20

  61  0.625  0.000  0.313-  89 1.99  97 1.99  85 2.02  86 2.03  94 2.03  93 2.03  12 3.20  62 3.21

  62  0.875  0.000  0.313-  90 1.99  98 1.99  94 2.02  35 2.02  43 2.03  86 2.03  11 3.20  61 3.21

  63  0.500  0.500  0.313-  83 1.98  75 2.00  40 2.03  48 2.03  89 2.03  97 2.03  14 3.20  64 3.21

  64  0.750  0.500  0.313-  84 1.98  76 2.00  90 2.03  98 2.03  97 2.03  89 2.03  13 3.20  63 3.21

  65  0.501  0.000  0.441- 100 1.80  95 2.03  87 2.03  46 2.03  38 2.03  93 2.08  66 3.18  16 3.21

  66  0.749  0.000  0.441-  99 1.80  95 2.03  87 2.03  96 2.03  88 2.03  94 2.08  65 3.18  15 3.21

  67  0.500  0.500  0.140-  55 2.00  51 2.02   2 2.02
  68  0.750  0.500  0.140-  56 2.00  52 2.02  51 2.02
  69  0.500  0.000  0.015-   4 2.02  53 2.02
  70  0.750  0.000  0.015-  53 2.02  54 2.02
  71  0.625  0.808  0.188-  51 2.00  57 2.02  58 2.02
  72  0.875  0.808  0.188-  52 2.00   7 2.02  58 2.02
  73  0.625  0.308  0.062-  53 2.00  55 2.02  56 2.02
  74  0.875  0.308  0.062-  54 2.00   5 2.02  56 2.02
  75  0.500  0.500  0.235-  63 2.00  51 2.02   2 2.02
  76  0.750  0.500  0.235-  64 2.00  52 2.02  51 2.02
  77  0.500  0.000  0.110-  57 2.00  53 2.02   4 2.02
  78  0.750  0.000  0.110-  58 2.00  54 2.02  53 2.02
  79  0.625  0.192  0.188-  51 2.00  57 2.02  58 2.02
  80  0.875  0.192  0.188-  52 2.00   7 2.02  58 2.02
  81  0.625  0.692  0.062-  53 2.00  55 2.02  56 2.02
  82  0.875  0.692  0.062-  54 2.00   5 2.02  56 2.02
  83  0.500  0.500  0.389-  63 1.98  59 2.03  10 2.04
  84  0.751  0.500  0.389-  64 1.98  59 2.03  60 2.04
  85  0.500  0.000  0.265-  57 2.00  61 2.02  12 2.03
  86  0.750  0.000  0.265-  58 2.00  61 2.03  62 2.03
  87  0.625  0.808  0.434-  59 2.00  65 2.03  66 2.03
  88  0.875  0.809  0.438-  60 2.00  66 2.03  15 2.03
  89  0.625  0.308  0.312-  61 1.99  63 2.03  64 2.03
  90  0.875  0.308  0.312-  62 1.99  13 2.03  64 2.03
  91  0.501  0.500  0.483-  59 1.98  10 1.99
  92  0.749  0.500  0.483-  59 1.98  60 1.99
  93  0.499  0.000  0.361-  12 2.02  61 2.03  65 2.08
  94  0.751  0.000  0.361-  62 2.02  61 2.03  66 2.08
  95  0.625  0.192  0.434-  59 2.00  65 2.03  66 2.03
  96  0.875  0.191  0.438-  60 2.00  66 2.03  15 2.03
  97  0.625  0.692  0.312-  61 1.99  63 2.03  64 2.03
  98  0.875  0.692  0.312-  62 1.99  13 2.03  64 2.03
  99  0.740  0.000  0.510-  66 1.80
 100  0.511  0.000  0.510-  65 1.80
 
  LATTYP: Found a simple orthorhombic cell.
 ALAT       =     6.4702430000
 B/A-ratio  =     1.9796060210
 C/A-ratio  =     4.0000000000
  
  Lattice vectors:
  
 A1 = (   0.0000000000,  -6.4702430000,   0.0000000000)
 A2 = ( -12.8085320000,   0.0000000000,   0.0000000000)
 A3 = (   0.0000000000,   0.0000000000, -25.8809720000)


Analysis of symmetry for initial positions (statically):
=====================================================================
 Subroutine PRICEL returns:
 Original cell was already a primitive cell.
 

 Routine SETGRP: Setting up the symmetry group for a 
 simple orthorhombic supercell.


 Subroutine GETGRP returns: Found  2 space group operations
 (whereof  2 operations were pure point group operations)
 out of a pool of  8 trial point group operations.


The static configuration has the point symmetry C_1h.


Analysis of symmetry for dynamics (positions and initial velocities):
=====================================================================
 Subroutine PRICEL returns:
 Original cell was already a primitive cell.
 

 Routine SETGRP: Setting up the symmetry group for a 
 simple orthorhombic supercell.


 Subroutine GETGRP returns: Found  2 space group operations
 (whereof  2 operations were pure point group operations)
 out of a pool of  8 trial point group operations.


The dynamic configuration has the point symmetry C_1h.


Analysis of constrained symmetry for selective dynamics:
=====================================================================
 Subroutine PRICEL returns:
 Original cell was already a primitive cell.
 

 Routine SETGRP: Setting up the symmetry group for a 
 simple orthorhombic supercell.


 Subroutine GETGRP returns: Found  2 space group operations
 (whereof  2 operations were pure point group operations)
 out of a pool of  8 trial point group operations.


The constrained configuration has the point symmetry C_1h.


Analysis of structural, dynamic, and magnetic symmetry:
=====================================================================
 Subroutine PRICEL returns:
 Original cell was already a primitive cell.
 

 Routine SETGRP: Setting up the symmetry group for a 
 simple orthorhombic supercell.


 Subroutine GETGRP returns: Found  2 space group operations
 (whereof  2 operations were pure point group operations)
 out of a pool of  8 trial point group operations.


The magnetic configuration has the point symmetry C_1h.


 Subroutine INISYM returns: Found  2 space group operations
 (whereof  2 operations are pure point group operations),
 and found     1 'primitive' translations

 
 
 KPOINTS: Automatic mesh                          

Automatic generation of k-mesh.
Space group operators:
 irot       det(A)        alpha          n_x          n_y          n_z        tau_x        tau_y        tau_z
    1     1.000000     0.000001     1.000000     0.000000     0.000000     0.000000     0.000000     0.000000
    2    -1.000000   180.000000     0.000000     1.000000     0.000000     0.000000     0.000000     0.000000
 
 Subroutine IBZKPT returns following result:
 ===========================================
 
 Found      4 irreducible k-points:
 
 Following reciprocal coordinates:
            Coordinates               Weight
  0.000000  0.000000  0.000000      1.000000
  0.333333  0.000000  0.000000      2.000000
  0.000000  0.333333  0.000000      2.000000
  0.333333  0.333333  0.000000      4.000000
 
 Following cartesian coordinates:
            Coordinates               Weight
  0.000000  0.000000  0.000000      1.000000
  0.026024  0.000000  0.000000      2.000000
  0.000000  0.051518  0.000000      2.000000
  0.026024  0.051518  0.000000      4.000000
 


--------------------------------------------------------------------------------------------------------




 Dimension of arrays:
   k-points           NKPTS =      4   k-points in BZ     NKDIM =      4   number of bands    NBANDS=    448
   number of dos      NEDOS =    301   number of ions     NIONS =    100
   non local maximal  LDIM  =      6   non local SUM 2l+1 LMDIM =     18
   total plane-waves  NPLWV = 362880
   max r-space proj   IRMAX =   2532   max aug-charges    IRDMAX=  12432
   dimension x,y,z NGX =    70 NGY =   36 NGZ =  144
   dimension x,y,z NGXF=   140 NGYF=   72 NGZF=  288
   support grid    NGXF=   140 NGYF=   72 NGZF=  288
   ions per type =              16  34  16  34
   NGX,Y,Z   is equivalent  to a cutoff of   9.09,  9.25,  9.25 a.u.
   NGXF,Y,Z  is equivalent  to a cutoff of  18.17, 18.50, 18.50 a.u.

 SYSTEM =  unknown system                          
 POSCAR =  Ir  O Ir  O                             

 Startparameter for this run:
   NWRITE =      2    write-flag & timer
   PREC   = normal    normal or accurate (medium, high low for compatibility)
   ISTART =      0    job   : 0-new  1-cont  2-samecut
   ICHARG =      2    charge: 1-file 2-atom 10-const
   ISPIN  =      2    spin polarized calculation?
   LNONCOLLINEAR =      F non collinear calculations
   LSORBIT =      F    spin-orbit coupling
   INIWAV =      1    electr: 0-lowe 1-rand  2-diag
   LASPH  =      F    aspherical Exc in radial PAW
   METAGGA=      F    non-selfconsistent MetaGGA calc.

 Electronic Relaxation 1
   ENCUT  =  500.0 eV  36.75 Ry    6.06 a.u.  23.35 11.80 47.19*2*pi/ulx,y,z
   ENINI  =  500.0     initial cutoff
   ENAUG  =  605.4 eV  augmentation charge cutoff
   NELM   =     60;   NELMIN=  4; NELMDL= -5     # of ELM steps 
   EDIFF  = 0.1E-04   stopping-criterion for ELM
   LREAL  =      T    real-space projection
   NLSPLINE    = F    spline interpolate recip. space projectors
   LCOMPAT=      F    compatible to vasp.4.4
   GGA_COMPAT  = T    GGA compatible to vasp.4.4-vasp.4.6
   LMAXPAW     = -100 max onsite density
   LMAXMIX     =    2 max onsite mixed and CHGCAR
   VOSKOWN=      0    Vosko Wilk Nusair interpolation
   ROPT   =   -0.00050  -0.00050  -0.00050  -0.00050
 Ionic relaxation
   EDIFFG = -.5E-01   stopping-criterion for IOM
   NSW    =    500    number of steps for IOM
   NBLOCK =      1;   KBLOCK =    500    inner block; outer block 
   IBRION =      1    ionic relax: 0-MD 1-quasi-New 2-CG
   NFREE  =      0    steps in history (QN), initial steepest desc. (CG)
   ISIF   =      2    stress and relaxation
   IWAVPR =     11    prediction:  0-non 1-charg 2-wave 3-comb
   ISYM   =      2    0-nonsym 1-usesym 2-fastsym
   LCORR  =      T    Harris-Foulkes like correction to forces

   POTIM  = 0.5000    time-step for ionic-motion
   TEIN   =    0.0    initial temperature
   TEBEG  =    0.0;   TEEND  =   0.0 temperature during run
   SMASS  =  -3.00    Nose mass-parameter (am)
   estimated Nose-frequenzy (Omega)   =  0.10E-29 period in steps =****** mass=  -0.375E-26a.u.
   SCALEE = 1.0000    scale energy and forces
   NPACO  =    256;   APACO  = 16.0  distance and # of slots for P.C.
   PSTRESS=    0.0 pullay stress

  Mass of Ions in am
   POMASS = 192.22 16.00192.22 16.00
  Ionic Valenz
   ZVAL   =   9.00  6.00  9.00  6.00
  Atomic Wigner-Seitz radii
   RWIGS  =  -1.00 -1.00 -1.00 -1.00
  virtual crystal weights 
   VCA    =   1.00  1.00  1.00  1.00
   NELECT =     696.0000    total number of electrons
   NUPDOWN=      -1.0000    fix difference up-down

 DOS related values:
   EMIN   =  10.00;   EMAX   =-10.00  energy-range for DOS
   EFERMI =   0.00
   ISMEAR =     0;   SIGMA  =   0.05  broadening in eV -4-tet -1-fermi 0-gaus

 Electronic relaxation 2 (details)
   IALGO  =     68    algorithm
   LDIAG  =      T    sub-space diagonalisation (order eigenvalues)
   LSUBROT=      F    optimize rotation matrix (better conditioning)
   TURBO    =      0    0=normal 1=particle mesh
   IRESTART =      0    0=no restart 2=restart with 2 vectors
   NREBOOT  =      0    no. of reboots
   NMIN     =      0    reboot dimension
   EREF     =   0.00    reference energy to select bands
   IMIX   =      4    mixing-type and parameters
     AMIX     =   0.40;   BMIX     =  1.00
     AMIX_MAG =   1.60;   BMIX_MAG =  1.00
     AMIN     =   0.10
     WC   =   100.;   INIMIX=   1;  MIXPRE=   1;  MAXMIX= -45

 Intra band minimization:
   WEIMIN = 0.0010     energy-eigenvalue tresh-hold
   EBREAK =  0.56E-08  absolut break condition
   DEPER  =   0.30     relativ break condition  

   TIME   =   0.40     timestep for ELM

  volume/ion in A,a.u.               =      21.45       144.74
  Fermi-wavevector in a.u.,A,eV,Ry     =   1.124979  2.125902 17.219229  1.265578
  Thomas-Fermi vector in A             =   2.261654
 
 Write flags
   LWAVE        =      F    write WAVECAR
   LDOWNSAMPLE  =      F    k-point downsampling of WAVECAR
   LCHARG       =      F    write CHGCAR
   LVTOT        =      F    write LOCPOT, total local potential
   LVHAR        =      F    write LOCPOT, Hartree potential only
   LELF         =      F    write electronic localiz. function (ELF)
   LORBIT       =      0    0 simple, 1 ext, 2 COOP (PROOUT), +10 PAW based schemes


 Dipole corrections
   LMONO  =      F    monopole corrections only (constant potential shift)
   LDIPOL =      F    correct potential (dipole corrections)
   IDIPOL =      0    1-x, 2-y, 3-z, 4-all directions 
   EPSILON=  1.0000000 bulk dielectric constant

 Exchange correlation treatment:
   GGA     =    RP    GGA type
   LEXCH   =     9    internal setting for exchange type
   VOSKOWN=      0    Vosko Wilk Nusair interpolation
   LHFCALC =     F    Hartree Fock is set to
   LHFONE  =     F    Hartree Fock one center treatment
   AEXX    =    0.0000 exact exchange contribution

 Linear response parameters
   LEPSILON=     F    determine dielectric tensor
   LRPA    =     F    only Hartree local field effects (RPA)
   LNABLA  =     F    use nabla operator in PAW spheres
   LVEL    =     F    velocity operator in full k-point grid
   LINTERFAST=   F  fast interpolation
   KINTER  =     0    interpolate to denser k-point grid
   CSHIFT  =0.1000    complex shift for real part using Kramers Kronig
   OMEGAMAX=  -1.0    maximum frequency
   DEG_THRESHOLD= 0.2000000E-02 threshold for treating states as degnerate
   RTIME   =   -0.100 relaxation time in fs
  (WPLASMAI=    0.000 imaginary part of plasma frequency in eV, 0.658/RTIME)
   DFIELD  = 0.0000000 0.0000000 0.0000000 field for delta impulse in time
 
 Orbital magnetization related:
   ORBITALMAG=     F  switch on orbital magnetization
   LCHIMAG   =     F  perturbation theory with respect to B field
   DQ        =  0.001000  dq finite difference perturbation B field
   LLRAUG    =     F  two centre corrections for induced B field



--------------------------------------------------------------------------------------------------------


 quasi-Newton-method for relaxation of ions
   using selective dynamics as specified on POSCAR
 charge density and potential will be updated during run
 spin polarized calculation
 RMM-DIIS sequential band-by-band and
  variant of blocked Davidson during initial phase
 perform sub-space diagonalisation
    before iterative eigenvector-optimisation
 modified Broyden-mixing scheme, WC =      100.0
 initial mixing is a Kerker type mixing with AMIX =  0.4000 and BMIX =      1.0000
 Hartree-type preconditioning will be used
 using additional bands          100
 real space projection scheme for non local part
 use partial core corrections
 calculate Harris-corrections to forces 
   (improved forces if not selfconsistent)
 use gradient corrections 
 use of overlap-Matrix (Vanderbilt PP)
 Gauss-broadening in eV      SIGMA  =   0.05


--------------------------------------------------------------------------------------------------------


  energy-cutoff  :      500.00
  volume of cell :     2144.87
      direct lattice vectors                 reciprocal lattice vectors
    12.808532000  0.000000000  0.000000000     0.078072959  0.000000000  0.000000000
     0.000000000  6.470243000  0.000000000     0.000000000  0.154553701  0.000000000
     0.000000000  0.000000000 25.880972000     0.000000000  0.000000000  0.038638425

  length of vectors
    12.808532000  6.470243000 25.880972000     0.078072959  0.154553701  0.038638425


 
 k-points in units of 2pi/SCALE and weight: Automatic mesh                          
   0.00000000  0.00000000  0.00000000       0.111
   0.02602432  0.00000000  0.00000000       0.222
   0.00000000  0.05151790  0.00000000       0.222
   0.02602432  0.05151790  0.00000000       0.444
 
 k-points in reciprocal lattice and weights: Automatic mesh                          
   0.00000000  0.00000000  0.00000000       0.111
   0.33333333  0.00000000  0.00000000       0.222
   0.00000000  0.33333333  0.00000000       0.222
   0.33333333  0.33333333  0.00000000       0.444
 
 position of ions in fractional coordinates (direct lattice) 
   0.12500000  0.50000000  0.18750000
   0.37500000  0.50000000  0.18750000
   0.12500000  0.00000000  0.06250000
   0.37500000  0.00000000  0.06250000
   0.00000000  0.50000000  0.06250000
   0.25000000  0.50000000  0.06250000
   0.00000000  0.00000000  0.18750000
   0.25000000  0.00000000  0.18750000
   0.12499015  0.50000000  0.43806198
   0.37530277  0.50000000  0.43824627
   0.12490588  0.00000000  0.31304178
   0.37475310  0.00000000  0.31277418
   0.00001392  0.50000000  0.31295959
   0.24992868  0.50000000  0.31298735
   0.99989434  0.00000000  0.44178380
   0.25018733  0.00000000  0.44185293
   0.00000000  0.50000000  0.13961000
   0.25000000  0.50000000  0.13961000
   0.00000000  0.00000000  0.01461000
   0.25000000  0.00000000  0.01461000
   0.12500000  0.80844000  0.18750000
   0.37500000  0.80844000  0.18750000
   0.12500000  0.30844000  0.06250000
   0.37500000  0.30844000  0.06250000
   0.00000000  0.50000000  0.23539000
   0.25000000  0.50000000  0.23539000
   0.00000000  0.00000000  0.11039000
   0.25000000  0.00000000  0.11039000
   0.12500000  0.19156000  0.18750000
   0.37500000  0.19156000  0.18750000
   0.12500000  0.69156000  0.06250000
   0.37500000  0.69156000  0.06250000
   0.99983307  0.50000000  0.38966546
   0.25013556  0.50000000  0.38963386
   0.00015426  0.00000000  0.26490926
   0.24968841  0.00000000  0.26482941
   0.12486451  0.80896642  0.43608892
   0.37593323  0.80912993  0.43768716
   0.12481715  0.30763770  0.31269691
   0.37495155  0.30757951  0.31248712
   0.00012725  0.50000000  0.48368250
   0.24992930  0.50000000  0.48367238
   0.99951917  0.00000000  0.36112862
   0.25033888  0.00000000  0.36117246
   0.12486451  0.19103358  0.43608892
   0.37593323  0.19087007  0.43768716
   0.12481715  0.69236230  0.31269691
   0.37495155  0.69242049  0.31248712
   0.24828980  0.00000000  0.51125699
   0.00174111  0.00000000  0.51116502
   0.62500000  0.50000000  0.18750000
   0.87500000  0.50000000  0.18750000
   0.62500000  0.00000000  0.06250000
   0.87500000  0.00000000  0.06250000
   0.50000000  0.50000000  0.06250000
   0.75000000  0.50000000  0.06250000
   0.50000000  0.00000000  0.18750000
   0.75000000  0.00000000  0.18750000
   0.62507773  0.50000000  0.43711872
   0.87483718  0.50000000  0.43824676
   0.62484352  0.00000000  0.31268569
   0.87516664  0.00000000  0.31269277
   0.49981304  0.50000000  0.31274043
   0.75007558  0.50000000  0.31269713
   0.50109214  0.00000000  0.44092879
   0.74924325  0.00000000  0.44073788
   0.50000000  0.50000000  0.13961000
   0.75000000  0.50000000  0.13961000
   0.50000000  0.00000000  0.01461000
   0.75000000  0.00000000  0.01461000
   0.62500000  0.80844000  0.18750000
   0.87500000  0.80844000  0.18750000
   0.62500000  0.30844000  0.06250000
   0.87500000  0.30844000  0.06250000
   0.50000000  0.50000000  0.23539000
   0.75000000  0.50000000  0.23539000
   0.50000000  0.00000000  0.11039000
   0.75000000  0.00000000  0.11039000
   0.62500000  0.19156000  0.18750000
   0.87500000  0.19156000  0.18750000
   0.62500000  0.69156000  0.06250000
   0.87500000  0.69156000  0.06250000
   0.49958716  0.50000000  0.38916592
   0.75051887  0.50000000  0.38915329
   0.49986712  0.00000000  0.26485663
   0.74996251  0.00000000  0.26474570
   0.62513987  0.80821680  0.43353555
   0.87454306  0.80908931  0.43750236
   0.62476446  0.30779040  0.31231698
   0.87522575  0.30768253  0.31236141
   0.50149451  0.50000000  0.48314824
   0.74868773  0.50000000  0.48319728
   0.49930877  0.00000000  0.36066782
   0.75055920  0.00000000  0.36050739
   0.62513987  0.19178320  0.43353555
   0.87454306  0.19091069  0.43750236
   0.62476446  0.69220960  0.31231698
   0.87522575  0.69231747  0.31236141
   0.73962255  0.00000000  0.50998440
   0.51117081  0.00000000  0.51016215
 
 position of ions in cartesian coordinates  (Angst):
   1.60106650  3.23512150  4.85268225
   4.80319950  3.23512150  4.85268225
   1.60106650  0.00000000  1.61756075
   4.80319950  0.00000000  1.61756075
   0.00000000  3.23512150  1.61756075
   3.20213300  3.23512150  1.61756075
   0.00000000  0.00000000  4.85268225
   3.20213300  0.00000000  4.85268225
   1.60094031  3.23512150 11.33746982
   4.80707760  3.23512150 11.34223951
   1.59986094  0.00000000  8.10182554
   4.80003707  0.00000000  8.09489982
   0.00017823  3.23512150  8.09969840
   3.20121947  3.23512150  8.10041692
  12.80717859  0.00000000 11.43379422
   3.20453244  0.00000000 11.43558319
   0.00000000  3.23512150  3.61324250
   3.20213300  3.23512150  3.61324250
   0.00000000  0.00000000  0.37812100
   3.20213300  0.00000000  0.37812100
   1.60106650  5.23080325  4.85268225
   4.80319950  5.23080325  4.85268225
   1.60106650  1.99568175  1.61756075
   4.80319950  1.99568175  1.61756075
   0.00000000  3.23512150  6.09212200
   3.20213300  3.23512150  6.09212200
   0.00000000  0.00000000  2.85700050
   3.20213300  0.00000000  2.85700050
   1.60106650  1.23943975  4.85268225
   4.80319950  1.23943975  4.85268225
   1.60106650  4.47456125  1.61756075
   4.80319950  4.47456125  1.61756075
  12.80639382  3.23512150 10.08492096
   3.20386935  3.23512150 10.08410302
   0.00197585  0.00000000  6.85610925
   3.19814193  0.00000000  6.85404262
   1.59933112  5.23420932 11.28640504
   4.81515283  5.23526729 11.32776921
   1.59872441  1.99049069  8.09289986
   4.80257889  1.99011415  8.08747043
   0.00162995  3.23512150 12.51817334
   3.20122741  3.23512150 12.51791142
  12.80237324  0.00000000  9.34635980
   3.20647361  0.00000000  9.34749444
   1.59933112  1.23603368 11.28640504
   4.81515283  1.23497571 11.32776921
   1.59872441  4.47975231  8.09289986
   4.80257889  4.48012885  8.08747043
   3.18022787  0.00000000 13.23182780
   0.02230110  0.00000000 13.22944760
   8.00533250  3.23512150  4.85268225
  11.20746550  3.23512150  4.85268225
   8.00533250  0.00000000  1.61756075
  11.20746550  0.00000000  1.61756075
   6.40426600  3.23512150  1.61756075
   9.60639900  3.23512150  1.61756075
   6.40426600  0.00000000  4.85268225
   9.60639900  0.00000000  4.85268225
   8.00632814  3.23512150 11.31305726
  11.20537997  3.23512150 11.34225224
   8.00332817  0.00000000  8.09260962
  11.20959988  0.00000000  8.09279281
   6.40187130  3.23512150  8.09402641
   9.60736707  3.23512150  8.09290565
   6.41825467  0.00000000 11.41166578
   9.59670611  0.00000000 11.40672466
   6.40426600  3.23512150  3.61324250
   9.60639900  3.23512150  3.61324250
   6.40426600  0.00000000  0.37812100
   9.60639900  0.00000000  0.37812100
   8.00533250  5.23080325  4.85268225
  11.20746550  5.23080325  4.85268225
   8.00533250  1.99568175  1.61756075
  11.20746550  1.99568175  1.61756075
   6.40426600  3.23512150  6.09212200
   9.60639900  3.23512150  6.09212200
   6.40426600  0.00000000  2.85700050
   9.60639900  0.00000000  2.85700050
   8.00533250  1.23943975  4.85268225
  11.20746550  1.23943975  4.85268225
   8.00533250  4.47456125  1.61756075
  11.20746550  4.47456125  1.61756075
   6.39897818  3.23512150 10.07199230
   9.61304499  3.23512150 10.07166529
   6.40256397  0.00000000  6.85474702
   9.60591880  0.00000000  6.85187603
   8.00712409  5.22935910 11.22032131
  11.20161281  5.23500445 11.32298623
   8.00231560  1.99147871  8.08306712
  11.21035708  1.99078072  8.08421694
   6.42340846  3.23512150 12.50434612
   9.58959071  3.23512150 12.50561520
   6.39541231  0.00000000  9.33443377
   9.61356157  0.00000000  9.33028171
   8.00712409  1.24088390 11.22032131
  11.20161281  1.23523855 11.32298623
   8.00231560  4.47876429  8.08306712
  11.21035708  4.47946228  8.08421694
   9.47347914  0.00000000 13.19889189
   6.54734773  0.00000000 13.20349224
 


--------------------------------------------------------------------------------------------------------


 k-point  1 :   0.0000 0.0000 0.0000  plane waves:   54455
 k-point  2 :   0.3333 0.0000 0.0000  plane waves:   54459
 k-point  3 :   0.0000 0.3333 0.0000  plane waves:   54468
 k-point  4 :   0.3333 0.3333 0.0000  plane waves:   54434

 maximum and minimum number of plane-waves per node :      5497     5417

 maximum number of plane-waves:     54468
 maximum index in each direction: 
   IXMAX=   23   IYMAX=   11   IZMAX=   47
   IXMIN=  -23   IYMIN=  -12   IZMIN=  -47


 real space projection operators:
  total allocation   :      13832.28 KBytes
  max/ min on nodes  :       1388.45       1375.97


 parallel 3D FFT for wavefunctions:
    minimum data exchange during FFTs selected (reduces bandwidth)
 parallel 3D FFT for charge:
    minimum data exchange during FFTs selected (reduces bandwidth)


 total amount of memory used by VASP MPI-rank0   130931. kBytes
=======================================================================

   base      :      30000. kBytes
   nonlr-proj:       5980. kBytes
   fftplans  :       3841. kBytes
   grid      :      10919. kBytes
   one-center:        311. kBytes
   wavefun   :      79880. kBytes
 
     INWAV:  cpu time    0.0000: real time    0.0002
 Broyden mixing: mesh for mixing (old mesh)
   NGX = 47   NGY = 23   NGZ = 95
  (NGX  =140   NGY  = 72   NGZ  =288)
  gives a total of 102695 points

 initial charge density was supplied:
 charge density of overlapping atoms calculated
 number of electron     696.0000000 magnetization      60.0000000
 keeping initial charge density in first step


--------------------------------------------------------------------------------------------------------


 Maximum index for non-local projection operator          274
 Maximum index for augmentation-charges          641 (set IRDMAX)


--------------------------------------------------------------------------------------------------------


 First call to EWALD:  gamma=   0.137
 Maximum number of real-space cells 3x 5x 2
 Maximum number of reciprocal cells 3x 2x 5

    FEWALD:  cpu time    0.0040: real time    0.0040


--------------------------------------- Iteration      1(   1)  ---------------------------------------


    POTLOK:  cpu time    0.0878: real time    0.0940
    SETDIJ:  cpu time    0.0165: real time    0.0185
     EDDAV:  cpu time   13.1286: real time   13.1889
       DOS:  cpu time    0.0024: real time    0.0030
    --------------------------------------------
      LOOP:  cpu time   13.2352: real time   13.3045

 eigenvalue-minimisations  :  7208
 total energy-change (2. order) : 0.7755985E+04  (-0.3130998E+05)
 number of electron     696.0000000 magnetization      60.0000000
 augmentation part      696.0000000 magnetization      60.0000000

 Free energy of the ion-electron system (eV)
  ---------------------------------------------------
  alpha Z        PSCENC =      1826.57435200
  Ewald energy   TEWEN  =    229990.59270688
  -Hartree energ DENC   =   -276897.26420011
  -exchange      EXHF   =         0.00000000
  -V(xc)+E(xc)   XCENC  =      1311.50163077
  PAW double counting   =     41249.06120504   -40032.83491672
  entropy T*S    EENTRO =        -0.05682083
  eigenvalues    EBANDS =      3010.35370226
  atomic energy  EATOM  =     47298.05697971
  Solvation  Ediel_sol  =         0.00000000
  ---------------------------------------------------
  free energy    TOTEN  =      7755.98463900 eV

  energy without entropy =     7756.04145982  energy(sigma->0) =     7756.01304941


--------------------------------------------------------------------------------------------------------




--------------------------------------- Iteration      1(   2)  ---------------------------------------


     EDDAV:  cpu time   13.6103: real time   13.6541
       DOS:  cpu time    0.0023: real time    0.0023
    --------------------------------------------
      LOOP:  cpu time   13.6126: real time   13.6564

 eigenvalue-minimisations  :  7536
 total energy-change (2. order) :-0.7219309E+04  (-0.6634518E+04)
 number of electron     696.0000000 magnetization      60.0000000
 augmentation part      696.0000000 magnetization      60.0000000

 Free energy of the ion-electron system (eV)
  ---------------------------------------------------
  alpha Z        PSCENC =      1826.57435200
  Ewald energy   TEWEN  =    229990.59270688
  -Hartree energ DENC   =   -276897.26420011
  -exchange      EXHF   =         0.00000000
  -V(xc)+E(xc)   XCENC  =      1311.50163077
  PAW double counting   =     41249.06120504   -40032.83491672
  entropy T*S    EENTRO =        -0.04568640
  eigenvalues    EBANDS =     -4208.96593830
  atomic energy  EATOM  =     47298.05697971
  Solvation  Ediel_sol  =         0.00000000
  ---------------------------------------------------
  free energy    TOTEN  =       536.67613287 eV

  energy without entropy =      536.72181927  energy(sigma->0) =      536.69897607


--------------------------------------------------------------------------------------------------------




--------------------------------------- Iteration      1(   3)  ---------------------------------------


     EDDAV:  cpu time   15.6904: real time   15.7446
       DOS:  cpu time    0.0025: real time    0.0025
    --------------------------------------------
      LOOP:  cpu time   15.6929: real time   15.7470

 eigenvalue-minimisations  :  9048
 total energy-change (2. order) :-0.1241178E+04  (-0.1182814E+04)
 number of electron     696.0000000 magnetization      60.0000000
 augmentation part      696.0000000 magnetization      60.0000000

 Free energy of the ion-electron system (eV)
  ---------------------------------------------------
  alpha Z        PSCENC =      1826.57435200
  Ewald energy   TEWEN  =    229990.59270688
  -Hartree energ DENC   =   -276897.26420011
  -exchange      EXHF   =         0.00000000
  -V(xc)+E(xc)   XCENC  =      1311.50163077
  PAW double counting   =     41249.06120504   -40032.83491672
  entropy T*S    EENTRO =        -0.06698280
  eigenvalues    EBANDS =     -5450.12254721
  atomic energy  EATOM  =     47298.05697971
  Solvation  Ediel_sol  =         0.00000000
  ---------------------------------------------------
  free energy    TOTEN  =      -704.50177245 eV

  energy without entropy =     -704.43478965  energy(sigma->0) =     -704.46828105


--------------------------------------------------------------------------------------------------------




--------------------------------------- Iteration      1(   4)  ---------------------------------------


     EDDAV:  cpu time   15.7852: real time   15.8434
       DOS:  cpu time    0.0021: real time    0.0021
    --------------------------------------------
      LOOP:  cpu time   15.7874: real time   15.8456

 eigenvalue-minimisations  :  9120
 total energy-change (2. order) :-0.7241612E+02  (-0.7014922E+02)
 number of electron     696.0000000 magnetization      60.0000000
 augmentation part      696.0000000 magnetization      60.0000000

 Free energy of the ion-electron system (eV)
  ---------------------------------------------------
  alpha Z        PSCENC =      1826.57435200
  Ewald energy   TEWEN  =    229990.59270688
  -Hartree energ DENC   =   -276897.26420011
  -exchange      EXHF   =         0.00000000
  -V(xc)+E(xc)   XCENC  =      1311.50163077
  PAW double counting   =     41249.06120504   -40032.83491672
  entropy T*S    EENTRO =        -0.06669924
  eigenvalues    EBANDS =     -5522.53894695
  atomic energy  EATOM  =     47298.05697971
  Solvation  Ediel_sol  =         0.00000000
  ---------------------------------------------------
  free energy    TOTEN  =      -776.91788862 eV

  energy without entropy =     -776.85118938  energy(sigma->0) =     -776.88453900


--------------------------------------------------------------------------------------------------------




--------------------------------------- Iteration      1(   5)  ---------------------------------------


     EDDAV:  cpu time   15.8054: real time   15.8483
       DOS:  cpu time    0.0022: real time    0.0022
    CHARGE:  cpu time    0.3221: real time    0.3238
    MIXING:  cpu time    0.0029: real time    0.0037
    --------------------------------------------
      LOOP:  cpu time   16.1326: real time   16.1781

 eigenvalue-minimisations  :  9144
 total energy-change (2. order) :-0.2290004E+01  (-0.2258301E+01)
 number of electron     696.0000613 magnetization      56.0555390
 augmentation part      119.2052528 magnetization      47.0193038

 Broyden mixing:
  rms(total) = 0.17827E+02    rms(broyden)= 0.17826E+02
  rms(prec ) = 0.18070E+02
  weight for this iteration     100.00

 Free energy of the ion-electron system (eV)
  ---------------------------------------------------
  alpha Z        PSCENC =      1826.57435200
  Ewald energy   TEWEN  =    229990.59270688
  -Hartree energ DENC   =   -276897.26420011
  -exchange      EXHF   =         0.00000000
  -V(xc)+E(xc)   XCENC  =      1311.50163077
  PAW double counting   =     41249.06120504   -40032.83491672
  entropy T*S    EENTRO =        -0.06680176
  eigenvalues    EBANDS =     -5524.82884854
  atomic energy  EATOM  =     47298.05697971
  Solvation  Ediel_sol  =         0.00000000
  ---------------------------------------------------
  free energy    TOTEN  =      -779.20789274 eV

  energy without entropy =     -779.14109098  energy(sigma->0) =     -779.17449186


--------------------------------------------------------------------------------------------------------




--------------------------------------- Iteration      1(   6)  ---------------------------------------


    POTLOK:  cpu time    0.0796: real time    0.0806
    SETDIJ:  cpu time    0.0155: real time    0.0155
    EDDIAG:  cpu time    1.8039: real time    1.8103
  RMM-DIIS:  cpu time    5.0067: real time    5.0201
    ORTHCH:  cpu time    0.5633: real time    0.5648
       DOS:  cpu time    0.0023: real time    0.0023
    CHARGE:  cpu time    0.3174: real time    0.3182
    MIXING:  cpu time    0.0026: real time    0.0028
    --------------------------------------------
      LOOP:  cpu time    7.7913: real time    7.8146

 eigenvalue-minimisations  :  7210
 total energy-change (2. order) : 0.1073284E+03  (-0.7567197E+02)
 number of electron     696.0000532 magnetization      52.8489254
 augmentation part      131.5182654 magnetization      46.0241283

 Broyden mixing:
  rms(total) = 0.12720E+02    rms(broyden)= 0.12716E+02
  rms(prec ) = 0.13776E+02
  weight for this iteration     100.00

 eigenvalues of (default mixing * dielectric matrix)
  average eigenvalue GAMMA=   0.8477
  0.8477

 Free energy of the ion-electron system (eV)
  ---------------------------------------------------
  alpha Z        PSCENC =      1826.57435200
  Ewald energy   TEWEN  =    229990.59270688
  -Hartree energ DENC   =   -277022.44221790
  -exchange      EXHF   =         0.00000000
  -V(xc)+E(xc)   XCENC  =      1395.26616298
  PAW double counting   =     49322.23936457   -48172.64347025
  entropy T*S    EENTRO =        -0.06333058
  eigenvalues    EBANDS =     -5309.45999115
  atomic energy  EATOM  =     47298.05697971
  Solvation  Ediel_sol  =         0.00000000
  ---------------------------------------------------
  free energy    TOTEN  =      -671.87944374 eV

  energy without entropy =     -671.81611316  energy(sigma->0) =     -671.84777845


--------------------------------------------------------------------------------------------------------




--------------------------------------- Iteration      1(   7)  ---------------------------------------


    POTLOK:  cpu time    0.0795: real time    0.0821
    SETDIJ:  cpu time    0.0155: real time    0.0155
    EDDIAG:  cpu time    1.8044: real time    1.8091
  RMM-DIIS:  cpu time    5.2166: real time    5.2306
    ORTHCH:  cpu time    0.5621: real time    0.5637
       DOS:  cpu time    0.0022: real time    0.0022
    CHARGE:  cpu time    0.3168: real time    0.3176
    MIXING:  cpu time    0.0026: real time    0.0026
    --------------------------------------------
      LOOP:  cpu time    7.9997: real time    8.0234

 eigenvalue-minimisations  :  7597
 total energy-change (2. order) :-0.4365089E+03  (-0.4397796E+02)
 number of electron     696.0000558 magnetization      52.2124298
 augmentation part      124.0009376 magnetization      40.5705925

 Broyden mixing:
  rms(total) = 0.33013E+02    rms(broyden)= 0.33012E+02
  rms(prec ) = 0.36384E+02
  weight for this iteration     100.00

 eigenvalues of (default mixing * dielectric matrix)
  average eigenvalue GAMMA=   0.4605
  0.8894  0.0316

 Free energy of the ion-electron system (eV)
  ---------------------------------------------------
  alpha Z        PSCENC =      1826.57435200
  Ewald energy   TEWEN  =    229990.59270688
  -Hartree energ DENC   =   -278112.99150829
  -exchange      EXHF   =         0.00000000
  -V(xc)+E(xc)   XCENC  =      1372.17300329
  PAW double counting   =     53968.96949984   -52823.35990727
  entropy T*S    EENTRO =        -0.04141254
  eigenvalues    EBANDS =     -4628.36204620
  atomic energy  EATOM  =     47298.05697971
  Solvation  Ediel_sol  =         0.00000000
  ---------------------------------------------------
  free energy    TOTEN  =     -1108.38833258 eV

  energy without entropy =    -1108.34692005  energy(sigma->0) =    -1108.36762632


--------------------------------------------------------------------------------------------------------




--------------------------------------- Iteration      1(   8)  ---------------------------------------


    POTLOK:  cpu time    0.0798: real time    0.0897
    SETDIJ:  cpu time    0.0154: real time    0.0155
    EDDIAG:  cpu time    1.8040: real time    1.8089
  RMM-DIIS:  cpu time    5.1101: real time    5.1237
    ORTHCH:  cpu time    0.5616: real time    0.5630
       DOS:  cpu time    0.0023: real time    0.0023
    CHARGE:  cpu time    0.3197: real time    0.3206
    MIXING:  cpu time    0.0029: real time    0.0047
    --------------------------------------------
      LOOP:  cpu time    7.8957: real time    7.9283

 eigenvalue-minimisations  :  7405
 total energy-change (2. order) : 0.1857449E+03  (-0.4139817E+01)
 number of electron     696.0000550 magnetization      50.6693351
 augmentation part      123.6351101 magnetization      38.4704301

 Broyden mixing:
  rms(total) = 0.26795E+02    rms(broyden)= 0.26794E+02
  rms(prec ) = 0.29866E+02
  weight for this iteration     100.00

 eigenvalues of (default mixing * dielectric matrix)
  average eigenvalue GAMMA=   0.4881
  0.8913  0.2865  0.2865

 Free energy of the ion-electron system (eV)
  ---------------------------------------------------
  alpha Z        PSCENC =      1826.57435200
  Ewald energy   TEWEN  =    229990.59270688
  -Hartree energ DENC   =   -278123.14557481
  -exchange      EXHF   =         0.00000000
  -V(xc)+E(xc)   XCENC  =      1370.87595120
  PAW double counting   =     55149.26870079   -54005.09901590
  entropy T*S    EENTRO =        -0.06289474
  eigenvalues    EBANDS =     -4429.70463465
  atomic energy  EATOM  =     47298.05697971
  Solvation  Ediel_sol  =         0.00000000
  ---------------------------------------------------
  free energy    TOTEN  =      -922.64342953 eV

  energy without entropy =     -922.58053479  energy(sigma->0) =     -922.61198216


--------------------------------------------------------------------------------------------------------




--------------------------------------- Iteration      1(   9)  ---------------------------------------


    POTLOK:  cpu time    0.0788: real time    0.0792
    SETDIJ:  cpu time    0.0153: real time    0.0153
    EDDIAG:  cpu time    1.8021: real time    1.8069
  RMM-DIIS:  cpu time    5.0010: real time    5.0143
    ORTHCH:  cpu time    0.5623: real time    0.5638
       DOS:  cpu time    0.0022: real time    0.0022
    CHARGE:  cpu time    0.3161: real time    0.3169
    MIXING:  cpu time    0.0029: real time    0.0029
    --------------------------------------------
      LOOP:  cpu time    7.7806: real time    7.8015

 eigenvalue-minimisations  :  7208
 total energy-change (2. order) : 0.7790456E+02  (-0.1483422E+02)
 number of electron     696.0000580 magnetization      47.9541755
 augmentation part      125.4090281 magnetization      41.7051476

 Broyden mixing:
  rms(total) = 0.24119E+02    rms(broyden)= 0.24119E+02
  rms(prec ) = 0.26474E+02
  weight for this iteration     100.00

 eigenvalues of (default mixing * dielectric matrix)
  average eigenvalue GAMMA=   0.5403
  1.3412  0.3599  0.2300  0.2300

 Free energy of the ion-electron system (eV)
  ---------------------------------------------------
  alpha Z        PSCENC =      1826.57435200
  Ewald energy   TEWEN  =    229990.59270688
  -Hartree energ DENC   =   -276924.97956977
  -exchange      EXHF   =         0.00000000
  -V(xc)+E(xc)   XCENC  =      1373.97292428
  PAW double counting   =     56040.05375908   -54902.73662792
  entropy T*S    EENTRO =        -0.04803895
  eigenvalues    EBANDS =     -5546.22535134
  atomic energy  EATOM  =     47298.05697971
  Solvation  Ediel_sol  =         0.00000000
  ---------------------------------------------------
  free energy    TOTEN  =      -844.73886603 eV

  energy without entropy =     -844.69082708  energy(sigma->0) =     -844.71484655


--------------------------------------------------------------------------------------------------------




--------------------------------------- Iteration      1(  10)  ---------------------------------------


    POTLOK:  cpu time    0.0788: real time    0.0793
    SETDIJ:  cpu time    0.0154: real time    0.0154
    EDDIAG:  cpu time    1.8257: real time    1.8304
  RMM-DIIS:  cpu time    5.0729: real time    5.0872
    ORTHCH:  cpu time    0.5619: real time    0.5635
       DOS:  cpu time    0.0023: real time    0.0023
    CHARGE:  cpu time    0.3181: real time    0.3189
    MIXING:  cpu time    0.0031: real time    0.0031
    --------------------------------------------
      LOOP:  cpu time    7.8781: real time    7.9001

 eigenvalue-minimisations  :  7350
 total energy-change (2. order) : 0.2241363E+02  (-0.8228116E+01)
 number of electron     696.0000586 magnetization      46.0994628
 augmentation part      126.1527804 magnetization      39.5552605

 Broyden mixing:
  rms(total) = 0.15252E+02    rms(broyden)= 0.15250E+02
  rms(prec ) = 0.18651E+02
  weight for this iteration     100.00

 eigenvalues of (default mixing * dielectric matrix)
  average eigenvalue GAMMA=   0.5412
  1.6769  0.4452  0.2195  0.2195  0.1448

 Free energy of the ion-electron system (eV)
  ---------------------------------------------------
  alpha Z        PSCENC =      1826.57435200
  Ewald energy   TEWEN  =    229990.59270688
  -Hartree energ DENC   =   -277066.89765732
  -exchange      EXHF   =         0.00000000
  -V(xc)+E(xc)   XCENC  =      1376.95373694
  PAW double counting   =     58942.05270586   -57817.08157520
  entropy T*S    EENTRO =        -0.04368871
  eigenvalues    EBANDS =     -5372.53279951
  atomic energy  EATOM  =     47298.05697971
  Solvation  Ediel_sol  =         0.00000000
  ---------------------------------------------------
  free energy    TOTEN  =      -822.32523936 eV

  energy without entropy =     -822.28155065  energy(sigma->0) =     -822.30339500


--------------------------------------------------------------------------------------------------------




--------------------------------------- Iteration      1(  11)  ---------------------------------------


    POTLOK:  cpu time    0.0787: real time    0.0792
    SETDIJ:  cpu time    0.0154: real time    0.0154
    EDDIAG:  cpu time    1.8051: real time    1.8099
  RMM-DIIS:  cpu time    5.0804: real time    5.0941
    ORTHCH:  cpu time    0.5643: real time    0.5657
       DOS:  cpu time    0.0022: real time    0.0022
    CHARGE:  cpu time    0.3186: real time    0.3194
    MIXING:  cpu time    0.0032: real time    0.0032
    --------------------------------------------
      LOOP:  cpu time    7.8678: real time    7.8890

 eigenvalue-minimisations  :  7341
 total energy-change (2. order) : 0.1429751E+03  (-0.1706715E+01)
 number of electron     696.0000586 magnetization      43.3961155
 augmentation part      123.5038698 magnetization      40.2960651

 Broyden mixing:
  rms(total) = 0.10260E+02    rms(broyden)= 0.10260E+02
  rms(prec ) = 0.12454E+02
  weight for this iteration     100.00

 eigenvalues of (default mixing * dielectric matrix)
  average eigenvalue GAMMA=   0.5743
  1.8714  0.4422  0.4422  0.2661  0.2661  0.1576

 Free energy of the ion-electron system (eV)
  ---------------------------------------------------
  alpha Z        PSCENC =      1826.57435200
  Ewald energy   TEWEN  =    229990.59270688
  -Hartree energ DENC   =   -277016.50956335
  -exchange      EXHF   =         0.00000000
  -V(xc)+E(xc)   XCENC  =      1378.37647894
  PAW double counting   =     61218.05903368   -60101.11605939
  entropy T*S    EENTRO =        -0.04384268
  eigenvalues    EBANDS =     -5273.34027390
  atomic energy  EATOM  =     47298.05697971
  Solvation  Ediel_sol  =         0.00000000
  ---------------------------------------------------
  free energy    TOTEN  =      -679.35018812 eV

  energy without entropy =     -679.30634543  energy(sigma->0) =     -679.32826677


--------------------------------------------------------------------------------------------------------




--------------------------------------- Iteration      1(  12)  ---------------------------------------


    POTLOK:  cpu time    0.0788: real time    0.0800
    SETDIJ:  cpu time    0.0152: real time    0.0152
    EDDIAG:  cpu time    1.8050: real time    1.8098
  RMM-DIIS:  cpu time    5.0558: real time    5.0693
    ORTHCH:  cpu time    0.5541: real time    0.5742
       DOS:  cpu time    0.0023: real time    0.0023
    CHARGE:  cpu time    0.3176: real time    0.3185
    MIXING:  cpu time    0.0034: real time    0.0034
    --------------------------------------------
      LOOP:  cpu time    7.8321: real time    7.8728

 eigenvalue-minimisations  :  7169
 total energy-change (2. order) : 0.6667074E+02  (-0.6614508E+01)
 number of electron     696.0000593 magnetization      41.8520751
 augmentation part      125.9762895 magnetization      36.1830200

 Broyden mixing:
  rms(total) = 0.48752E+01    rms(broyden)= 0.48732E+01
  rms(prec ) = 0.54241E+01
  weight for this iteration     100.00

 eigenvalues of (default mixing * dielectric matrix)
  average eigenvalue GAMMA=   0.5430
  1.7798  0.5263  0.5263  0.2627  0.2627  0.2862  0.1570

 Free energy of the ion-electron system (eV)
  ---------------------------------------------------
  alpha Z        PSCENC =      1826.57435200
  Ewald energy   TEWEN  =    229990.59270688
  -Hartree energ DENC   =   -277254.03077425
  -exchange      EXHF   =         0.00000000
  -V(xc)+E(xc)   XCENC  =      1388.04245918
  PAW double counting   =     62313.70437622   -61204.94035417
  entropy T*S    EENTRO =        -0.06909154
  eigenvalues    EBANDS =     -4970.61010235
  atomic energy  EATOM  =     47298.05697971
  Solvation  Ediel_sol  =         0.00000000
  ---------------------------------------------------
  free energy    TOTEN  =      -612.67944832 eV

  energy without entropy =     -612.61035679  energy(sigma->0) =     -612.64490256


--------------------------------------------------------------------------------------------------------




--------------------------------------- Iteration      1(  13)  ---------------------------------------


    POTLOK:  cpu time    0.0790: real time    0.0794
    SETDIJ:  cpu time    0.0153: real time    0.0153
    EDDIAG:  cpu time    1.8052: real time    1.8100
  RMM-DIIS:  cpu time    5.0087: real time    5.0221
    ORTHCH:  cpu time    0.5638: real time    0.5654
       DOS:  cpu time    0.0023: real time    0.0023
    CHARGE:  cpu time    0.3348: real time    0.3357
    MIXING:  cpu time    0.0035: real time    0.0035
    --------------------------------------------
      LOOP:  cpu time    7.8127: real time    7.8338

 eigenvalue-minimisations  :  7278
 total energy-change (2. order) : 0.1138285E+02  (-0.1530187E+01)
 number of electron     696.0000583 magnetization      41.0414955
 augmentation part      125.0790959 magnetization      34.9950580

 Broyden mixing:
  rms(total) = 0.30974E+01    rms(broyden)= 0.30945E+01
  rms(prec ) = 0.37483E+01
  weight for this iteration     100.00

 eigenvalues of (default mixing * dielectric matrix)
  average eigenvalue GAMMA=   0.5282
  1.6350  0.5757  0.5757  0.3825  0.3825  0.2593  0.2593  0.1558

 Free energy of the ion-electron system (eV)
  ---------------------------------------------------
  alpha Z        PSCENC =      1826.57435200
  Ewald energy   TEWEN  =    229990.59270688
  -Hartree energ DENC   =   -277176.26348419
  -exchange      EXHF   =         0.00000000
  -V(xc)+E(xc)   XCENC  =      1383.17786155
  PAW double counting   =     62492.92266005   -61386.37081731
  entropy T*S    EENTRO =        -0.08551079
  eigenvalues    EBANDS =     -5029.90134259
  atomic energy  EATOM  =     47298.05697971
  Solvation  Ediel_sol  =         0.00000000
  ---------------------------------------------------
  free energy    TOTEN  =      -601.29659469 eV

  energy without entropy =     -601.21108390  energy(sigma->0) =     -601.25383930


--------------------------------------------------------------------------------------------------------




--------------------------------------- Iteration      1(  14)  ---------------------------------------


    POTLOK:  cpu time    0.0784: real time    0.0789
    SETDIJ:  cpu time    0.0154: real time    0.0154
    EDDIAG:  cpu time    1.8030: real time    1.8079
  RMM-DIIS:  cpu time    4.9940: real time    5.0075
    ORTHCH:  cpu time    0.5646: real time    0.5662
       DOS:  cpu time    0.0023: real time    0.0023
    CHARGE:  cpu time    0.3191: real time    0.3200
    MIXING:  cpu time    0.0041: real time    0.0041
    --------------------------------------------
      LOOP:  cpu time    7.7810: real time    7.8021

 eigenvalue-minimisations  :  7196
 total energy-change (2. order) :-0.6348015E+01  (-0.4746763E+00)
 number of electron     696.0000579 magnetization      39.6056433
 augmentation part      125.5150463 magnetization      32.8504074

 Broyden mixing:
  rms(total) = 0.37018E+01    rms(broyden)= 0.36997E+01
  rms(prec ) = 0.42129E+01
  weight for this iteration     100.00

 eigenvalues of (default mixing * dielectric matrix)
  average eigenvalue GAMMA=   0.5231
  1.7421  0.5917  0.5917  0.5983  0.2607  0.2607  0.2973  0.1544  0.2110

 Free energy of the ion-electron system (eV)
  ---------------------------------------------------
  alpha Z        PSCENC =      1826.57435200
  Ewald energy   TEWEN  =    229990.59270688
  -Hartree energ DENC   =   -277076.98048923
  -exchange      EXHF   =         0.00000000
  -V(xc)+E(xc)   XCENC  =      1379.61997855
  PAW double counting   =     62119.01264046   -61011.70426044
  entropy T*S    EENTRO =        -0.05813830
  eigenvalues    EBANDS =     -5132.75837910
  atomic energy  EATOM  =     47298.05697971
  Solvation  Ediel_sol  =         0.00000000
  ---------------------------------------------------
  free energy    TOTEN  =      -607.64460947 eV

  energy without entropy =     -607.58647117  energy(sigma->0) =     -607.61554032


--------------------------------------------------------------------------------------------------------




--------------------------------------- Iteration      1(  15)  ---------------------------------------


    POTLOK:  cpu time    0.0794: real time    0.0814
    SETDIJ:  cpu time    0.0155: real time    0.0155
    EDDIAG:  cpu time    1.8040: real time    1.8091
  RMM-DIIS:  cpu time    4.9858: real time    4.9995
    ORTHCH:  cpu time    0.5635: real time    0.5650
       DOS:  cpu time    0.0023: real time    0.0023
    CHARGE:  cpu time    0.3202: real time    0.3210
    MIXING:  cpu time    0.0041: real time    0.0041
    --------------------------------------------
      LOOP:  cpu time    7.7748: real time    7.7978

 eigenvalue-minimisations  :  7184
 total energy-change (2. order) :-0.2235948E+00  (-0.2940567E+00)
 number of electron     696.0000575 magnetization      38.3240409
 augmentation part      124.9959041 magnetization      31.2266548

 Broyden mixing:
  rms(total) = 0.25945E+01    rms(broyden)= 0.25937E+01
  rms(prec ) = 0.27305E+01
  weight for this iteration     100.00

 eigenvalues of (default mixing * dielectric matrix)
  average eigenvalue GAMMA=   0.5084
  1.7553  0.6553  0.6553  0.5792  0.2644  0.2644  0.3300  0.1555  0.2125  0.2125

 Free energy of the ion-electron system (eV)
  ---------------------------------------------------
  alpha Z        PSCENC =      1826.57435200
  Ewald energy   TEWEN  =    229990.59270688
  -Hartree energ DENC   =   -277106.06066127
  -exchange      EXHF   =         0.00000000
  -V(xc)+E(xc)   XCENC  =      1376.09518703
  PAW double counting   =     62555.18004066   -61450.06080252
  entropy T*S    EENTRO =        -0.09564990
  eigenvalues    EBANDS =     -5098.15035685
  atomic energy  EATOM  =     47298.05697971
  Solvation  Ediel_sol  =         0.00000000
  ---------------------------------------------------
  free energy    TOTEN  =      -607.86820427 eV

  energy without entropy =     -607.77255437  energy(sigma->0) =     -607.82037932


--------------------------------------------------------------------------------------------------------




--------------------------------------- Iteration      1(  16)  ---------------------------------------


    POTLOK:  cpu time    0.0801: real time    0.0905
    SETDIJ:  cpu time    0.0154: real time    0.0154
    EDDIAG:  cpu time    1.8033: real time    1.8081
  RMM-DIIS:  cpu time    5.0129: real time    5.0262
    ORTHCH:  cpu time    0.5649: real time    0.5663
       DOS:  cpu time    0.0023: real time    0.0023
    CHARGE:  cpu time    0.3190: real time    0.3198
    MIXING:  cpu time    0.0041: real time    0.0041
    --------------------------------------------
      LOOP:  cpu time    7.8018: real time    7.8328

 eigenvalue-minimisations  :  7176
 total energy-change (2. order) :-0.4474694E+01  (-0.2086876E+00)
 number of electron     696.0000580 magnetization      36.7910645
 augmentation part      124.9264382 magnetization      29.1923482

[...]
   -.122E+01 0.410E+02 -.149E+04   0.132E+01 -.433E+02 0.148E+04   -.888E-01 0.226E+01 0.350E+01   -.800E-03 0.144E-01 0.301E-01
   0.195E+00 0.400E+02 -.149E+04   -.280E+00 -.423E+02 0.149E+04   0.384E-01 0.224E+01 0.295E+01   0.500E-01 0.159E-02 -.589E-02
   -.126E+01 0.309E+02 -.452E+03   0.130E+01 -.325E+02 0.452E+03   -.840E-01 0.160E+01 0.144E+00   0.463E-01 0.316E-02 0.543E-01
   0.868E+00 0.310E+02 -.452E+03   -.101E+01 -.326E+02 0.452E+03   0.398E-01 0.159E+01 0.224E+00   0.109E+00 0.203E-01 -.549E-02
   0.116E+01 -.527E-12 -.198E+04   -.115E+01 -.912E-14 0.201E+04   0.487E-01 0.000E+00 -.294E+02   -.684E-01 0.476E-12 0.150E-02
   -.160E+01 0.518E-12 -.198E+04   0.160E+01 -.251E-14 0.201E+04   -.348E-01 0.000E+00 -.294E+02   0.332E-01 0.194E-12 0.856E-02
   0.327E+00 -.116E-15 -.902E+03   -.319E+00 -.145E-13 0.909E+03   0.250E-01 0.000E+00 -.695E+01   -.268E-01 0.182E-12 0.749E-01
   -.102E+01 0.316E-12 -.903E+03   0.886E+00 -.149E-13 0.909E+03   0.631E-01 0.000E+00 -.690E+01   0.635E-01 -.119E-13 0.321E-01
   -.122E+01 -.410E+02 -.149E+04   0.132E+01 0.433E+02 0.148E+04   -.888E-01 -.226E+01 0.350E+01   -.800E-03 -.144E-01 0.301E-01
   0.195E+00 -.400E+02 -.149E+04   -.280E+00 0.423E+02 0.149E+04   0.384E-01 -.224E+01 0.295E+01   0.500E-01 -.159E-02 -.589E-02
   -.126E+01 -.309E+02 -.452E+03   0.130E+01 0.325E+02 0.452E+03   -.840E-01 -.160E+01 0.144E+00   0.463E-01 -.316E-02 0.543E-01
   0.868E+00 -.310E+02 -.452E+03   -.101E+01 0.326E+02 0.452E+03   0.398E-01 -.159E+01 0.224E+00   0.109E+00 -.203E-01 -.549E-02
   -.243E+01 -.931E-12 -.205E+04   0.198E+01 0.574E-14 0.208E+04   0.470E+00 0.000E+00 -.320E+02   0.112E-01 -.705E-13 -.643E-02
   0.201E+01 -.176E-12 -.205E+04   -.172E+01 0.152E-13 0.208E+04   -.283E+00 0.000E+00 -.321E+02   -.204E-01 -.342E-12 -.158E-02
   0.294E+00 -.390E-12 0.911E+03   -.161E+00 -.844E-13 -.910E+03   -.131E-01 0.000E+00 -.748E+00   -.131E+00 -.888E-12 0.109E+00
   -.130E+00 -.911E-12 0.910E+03   0.330E+00 -.123E-12 -.910E+03   0.102E-01 0.000E+00 -.747E+00   -.199E+00 -.132E-11 0.885E-01
   0.135E+00 -.317E-12 0.245E+04   -.526E-01 -.883E-13 -.245E+04   -.134E-01 0.000E+00 0.145E+01   -.803E-01 0.582E-12 0.102E+00
   0.349E-01 0.385E-12 0.245E+04   0.785E-01 -.567E-13 -.245E+04   0.138E-01 0.000E+00 0.145E+01   -.118E+00 0.121E-11 0.163E-01
   0.720E-01 -.328E-11 0.260E+04   -.921E-01 0.233E-14 -.259E+04   -.193E-03 0.000E+00 -.262E+01   0.202E-01 -.110E-11 0.124E+00
   0.122E+00 -.201E-11 0.260E+04   0.185E-01 0.710E-13 -.259E+04   0.331E-03 0.000E+00 -.261E+01   -.142E+00 -.875E-12 0.725E-01
   0.362E+00 0.147E-11 0.904E+03   -.425E+00 0.235E-13 -.904E+03   -.177E-02 0.000E+00 0.144E+00   0.626E-01 0.506E-12 0.984E-01
   0.133E+00 0.453E-12 0.904E+03   0.846E-01 -.141E-13 -.905E+03   -.696E-03 0.000E+00 0.121E+00   -.220E+00 0.100E-11 0.103E+00
   0.545E+00 -.171E-11 -.229E+04   -.556E+00 -.808E-13 0.229E+04   -.153E-01 0.000E+00 -.220E+01   0.211E-01 0.111E-11 -.253E-01
   0.152E+01 -.686E-14 -.229E+04   -.144E+01 0.488E-14 0.229E+04   0.118E-02 0.000E+00 -.222E+01   -.831E-01 0.159E-11 0.388E-01
   -.335E+00 0.692E-13 -.684E+03   0.391E+00 -.271E-13 0.684E+03   -.226E-02 0.000E+00 -.371E+00   -.632E-01 0.358E-12 -.251E-03
   0.247E+00 -.551E-12 -.684E+03   -.953E-01 0.114E-12 0.685E+03   0.699E-02 0.000E+00 -.389E+00   -.154E+00 0.102E-11 0.898E-01
   0.110E+01 -.533E-12 -.679E+03   -.116E+01 -.216E-13 0.680E+03   -.806E-02 0.000E+00 -.321E+00   0.777E-01 -.161E-12 -.432E-01
   0.438E+00 -.415E-11 -.680E+03   -.277E+00 0.153E-13 0.680E+03   -.643E-02 0.000E+00 -.313E+00   -.168E+00 -.209E-12 0.395E-01
   0.298E+01 -.162E-11 -.226E+04   -.301E+01 0.906E-14 0.227E+04   -.109E-01 0.000E+00 -.199E+01   0.422E-01 -.102E-11 -.517E-01
   -.182E+01 0.318E-12 -.226E+04   0.183E+01 -.276E-13 0.226E+04   0.276E-01 0.000E+00 -.199E+01   -.400E-01 -.560E-12 -.187E-01
   0.133E+00 -.336E-11 0.105E+04   -.165E+00 -.137E-13 -.105E+04   -.393E-02 0.000E+00 -.164E+01   0.355E-01 -.808E-12 0.130E+00
   0.128E+00 0.162E-11 0.105E+04   0.354E-01 -.120E-13 -.105E+04   0.264E-02 0.000E+00 -.164E+01   -.169E+00 -.933E-12 0.104E+00
   0.176E-01 0.105E-12 0.203E+04   -.321E-01 -.123E-14 -.205E+04   0.171E-03 0.000E+00 0.279E+02   0.150E-01 0.929E-12 0.346E-01
   0.711E-01 -.211E-11 0.203E+04   0.460E-02 0.351E-14 -.205E+04   0.104E-02 0.000E+00 0.279E+02   -.777E-01 0.935E-13 -.570E-02
   0.239E+00 0.341E+02 0.604E+03   -.164E+00 -.357E+02 -.605E+03   -.506E-01 0.161E+01 -.452E-01   -.774E-01 -.447E-01 0.722E-01
   -.129E+00 0.340E+02 0.604E+03   0.264E+00 -.357E+02 -.604E+03   0.545E-01 0.161E+01 -.441E-01   -.135E+00 0.360E-02 0.595E-01
   0.972E-01 -.361E+01 0.167E+04   -.341E-01 0.173E+01 -.167E+04   -.527E-01 0.180E+01 -.469E+00   -.642E-01 0.475E-02 0.729E-01
   0.231E-01 -.362E+01 0.167E+04   0.518E-01 0.173E+01 -.167E+04   0.561E-01 0.180E+01 -.469E+00   -.776E-01 0.100E-01 0.120E-01
   0.484E+00 -.699E-12 0.167E+03   -.520E+00 0.131E-13 -.164E+03   -.252E-01 0.000E+00 -.246E+01   0.510E-01 -.477E-12 -.563E-02
   0.966E-01 -.109E-11 0.167E+03   0.743E-01 -.344E-14 -.164E+03   0.249E-02 0.000E+00 -.243E+01   -.180E+00 -.448E-12 0.332E-01
   0.859E-01 0.773E-12 0.121E+04   -.114E+00 0.207E-13 -.121E+04   0.389E-03 0.000E+00 0.233E+00   0.288E-01 0.775E-12 0.109E+00
   0.997E-01 -.791E-12 0.121E+04   0.235E-01 0.532E-14 -.121E+04   0.337E-02 0.000E+00 0.225E+00   -.126E+00 0.678E-12 0.873E-01
   0.239E+00 -.341E+02 0.604E+03   -.164E+00 0.357E+02 -.605E+03   -.506E-01 -.161E+01 -.452E-01   -.774E-01 0.447E-01 0.722E-01
   -.129E+00 -.340E+02 0.604E+03   0.264E+00 0.357E+02 -.604E+03   0.545E-01 -.161E+01 -.441E-01   -.135E+00 -.360E-02 0.595E-01
   0.972E-01 0.361E+01 0.167E+04   -.341E-01 -.173E+01 -.167E+04   -.527E-01 -.180E+01 -.469E+00   -.642E-01 -.475E-02 0.729E-01
   0.231E-01 0.362E+01 0.167E+04   0.518E-01 -.173E+01 -.167E+04   0.561E-01 -.180E+01 -.469E+00   -.776E-01 -.100E-01 0.120E-01
   0.125E+01 0.293E-11 -.107E+04   -.128E+01 -.732E-14 0.107E+04   0.100E-01 0.000E+00 -.995E+00   0.362E-01 0.520E-12 -.406E-01
   -.111E+01 0.114E-12 -.107E+04   0.129E+01 -.523E-14 0.107E+04   -.148E+00 0.000E+00 -.823E+00   -.361E-01 0.985E-12 0.305E-01
   0.774E+00 -.614E-13 -.158E+02   -.926E+00 0.153E-13 0.140E+02   0.714E-01 0.000E+00 0.181E+01   0.701E-01 0.305E-12 0.461E-02
   0.120E+00 0.217E-12 -.159E+02   0.328E-01 0.143E-13 0.142E+02   -.203E-02 0.000E+00 0.164E+01   -.154E+00 0.837E-12 0.394E-01
   0.280E+00 0.410E+02 -.148E+04   -.270E+00 -.433E+02 0.148E+04   -.154E-01 0.224E+01 0.382E+01   0.170E-02 -.354E-02 -.401E-01
   0.103E+01 0.405E+02 -.149E+04   -.101E+01 -.427E+02 0.149E+04   0.394E-01 0.229E+01 0.303E+01   -.532E-01 -.346E-01 0.264E-01
   -.488E+00 0.309E+02 -.450E+03   0.626E+00 -.324E+02 0.450E+03   -.745E-01 0.159E+01 0.301E+00   -.522E-01 -.106E-01 -.797E-02
   0.471E+00 0.309E+02 -.451E+03   -.422E+00 -.325E+02 0.450E+03   0.636E-01 0.160E+01 0.296E+00   -.102E+00 0.128E-01 0.616E-01
   -.278E-01 -.441E-13 -.198E+04   0.409E-01 -.134E-13 0.201E+04   -.458E-01 0.000E+00 -.294E+02   0.282E-01 0.427E-12 -.339E-01
   0.648E+00 0.315E-11 -.198E+04   -.719E+00 0.133E-13 0.201E+04   0.759E-01 0.000E+00 -.294E+02   0.450E-02 0.114E-12 -.423E-01
   0.152E+01 0.880E-14 -.901E+03   -.154E+01 0.343E-14 0.908E+03   -.491E-01 0.000E+00 -.684E+01   0.651E-01 -.514E-12 -.313E-01
   -.462E+00 -.703E-12 -.900E+03   0.409E+00 0.176E-13 0.907E+03   0.152E+00 0.000E+00 -.682E+01   -.103E+00 -.629E-12 0.147E-01
   0.280E+00 -.410E+02 -.148E+04   -.270E+00 0.433E+02 0.148E+04   -.154E-01 -.224E+01 0.382E+01   0.170E-02 0.354E-02 -.401E-01
   0.103E+01 -.405E+02 -.149E+04   -.101E+01 0.427E+02 0.149E+04   0.394E-01 -.229E+01 0.303E+01   -.532E-01 0.346E-01 0.264E-01
   -.488E+00 -.309E+02 -.450E+03   0.626E+00 0.324E+02 0.450E+03   -.745E-01 -.159E+01 0.301E+00   -.522E-01 0.106E-01 -.797E-02
   0.471E+00 -.309E+02 -.451E+03   -.422E+00 0.325E+02 0.450E+03   0.636E-01 -.160E+01 0.296E+00   -.102E+00 -.128E-01 0.616E-01
   0.777E-01 0.422E-12 -.205E+04   -.308E+00 0.468E-14 0.208E+04   0.271E+00 0.000E+00 -.320E+02   -.278E-01 0.217E-12 -.418E-01
   0.457E+00 0.108E-11 -.205E+04   -.166E+00 0.671E-14 0.208E+04   -.331E+00 0.000E+00 -.321E+02   0.370E-01 -.121E-12 -.412E-01
 -----------------------------------------------------------------------------------------------
   0.154E+00 0.372E-10 0.173E+03   -.216E-11 -.952E-13 0.455E-12   -.556E-01 -.178E-14 -.176E+03   -.195E-02 0.578E-12 0.330E+01
 
 
 POSITION                                       TOTAL-FORCE (eV/Angst)
 -----------------------------------------------------------------------------------
      1.60107      3.23512      4.85268        -0.008332      0.000000     -0.316301
      4.80320      3.23512      4.85268         0.012474      0.000000     -0.316989
      1.60107      0.00000      1.61756        -0.011744      0.000000     -0.950491
      4.80320      0.00000      1.61756         0.010295      0.000000     -0.952554
      0.00000      3.23512      1.61756        -0.001030      0.000000      1.568367
      3.20213      3.23512      1.61756         0.000038      0.000000      1.583501
      0.00000      0.00000      4.85268         0.008291      0.000000     -0.080543
      3.20213      0.00000      4.85268        -0.014120      0.000000     -0.096551
      1.60286      3.23512     11.33551         0.000706      0.000000     -0.006222
      4.80605      3.23512     11.33621         0.001858      0.000000     -0.007191
      1.59976      0.00000      8.09834         0.004911      0.000000     -0.004377
      4.80172      0.00000      8.09582         0.001640      0.000000      0.003786
     -0.00001      3.23512      8.09806         0.000800      0.000000     -0.005154
      3.20154      3.23512      8.09891        -0.006675      0.000000     -0.002105
     12.81240      0.00000     11.42591         0.001466      0.000000     -0.015745
      3.20343      0.00000     11.42848         0.003057      0.000000     -0.005599
      0.00000      3.23512      3.61324        -0.002690      0.000000     -0.100841
      3.20213      3.23512      3.61324         0.000361      0.000000     -0.105235
      0.00000      0.00000      0.37812        -0.000858      0.000000      0.832843
      3.20213      0.00000      0.37812        -0.000165      0.000000      0.824067
      1.60107      5.23080      4.85268        -0.055078     -0.027813     -0.037043
      4.80320      5.23080      4.85268         0.051960     -0.028364     -0.035458
      1.60107      1.99568      1.61756        -0.054225     -0.073930     -0.671227
      4.80320      1.99568      1.61756         0.052535     -0.074032     -0.670045
      0.00000      3.23512      6.09212         0.004463      0.000000      0.306680
      3.20213      3.23512      6.09212        -0.009526      0.000000      0.322021
      0.00000      0.00000      2.85700        -0.003251      0.000000      0.190739
      3.20213      0.00000      2.85700         0.003848      0.000000      0.194933
      1.60107      1.23944      4.85268        -0.055078      0.027813     -0.037043
      4.80320      1.23944      4.85268         0.051960      0.028364     -0.035458
      1.60107      4.47456      1.61756        -0.054225      0.073930     -0.671227
      4.80320      4.47456      1.61756         0.052535      0.074032     -0.670045
     12.80943      3.23512     10.07948        -0.003552      0.000000     -0.003071
      3.20376      3.23512     10.08125         0.001094      0.000000     -0.008732
      0.00069      0.00000      6.85609         0.010415      0.000000     -0.001207
      3.19936      0.00000      6.85394         0.003581      0.000000     -0.004580
      1.60129      5.23268     11.28657         0.006352      0.002596     -0.011262
      4.80739      5.23406     11.29943         0.002714     -0.005393      0.012213
      1.59859      1.99033      8.09159         0.001680      0.001770     -0.003018
      4.80319      1.99014      8.08795         0.007169      0.001842     -0.005477
      0.00439      3.23512     12.51461        -0.008572      0.000000      0.003472
      3.20312      3.23512     12.51440        -0.005257      0.000000     -0.012801
     12.80579      0.00000      9.34047         0.004794      0.000000     -0.012888
      3.20297      0.00000      9.34235        -0.004822      0.000000     -0.009321
      1.60129      1.23756     11.28657         0.006352     -0.002596     -0.011262
      4.80739      1.23618     11.29943         0.002714      0.005393      0.012213
      1.59859      4.47991      8.09159         0.001680     -0.001770     -0.003018
      4.80319      4.48011      8.08795         0.007169     -0.001842     -0.005477
      3.17987      0.00000     13.22564         0.030999      0.000000     -0.016638
      0.01857      0.00000     13.22191        -0.013702      0.000000      0.003726
      8.00533      3.23512      4.85268        -0.012103      0.000000     -0.318892
     11.20747      3.23512      4.85268         0.010368      0.000000     -0.316331
      8.00533      0.00000      1.61756        -0.012084      0.000000     -0.953438
     11.20747      0.00000      1.61756         0.008651      0.000000     -0.951175
      6.40427      3.23512      1.61756        -0.001023      0.000000      1.572926
      9.60640      3.23512      1.61756        -0.001866      0.000000      1.581119
      6.40427      0.00000      4.85268        -0.002883      0.000000     -0.087178
      9.60640      0.00000      4.85268        -0.004496      0.000000     -0.109570
      8.00916      3.23512     11.32720        -0.006966      0.000000      0.013287
     11.21101      3.23512     11.33565        -0.001789      0.000000      0.015384
      8.00415      0.00000      8.09369        -0.010436      0.000000      0.007082
     11.20800      0.00000      8.09407         0.003706      0.000000      0.000458
      6.40281      3.23512      8.09574         0.001850      0.000000     -0.003122
      9.60679      3.23512      8.09515        -0.014505      0.000000      0.004889
      6.41026      0.00000     11.42006        -0.000224      0.000000     -0.006265
      9.61037      0.00000     11.41685         0.001373      0.000000      0.011909
      6.40427      3.23512      3.61324        -0.001280      0.000000     -0.100025
      9.60640      3.23512      3.61324        -0.003895      0.000000     -0.103940
      6.40427      0.00000      0.37812        -0.000357      0.000000      0.833416
      9.60640      0.00000      0.37812        -0.001981      0.000000      0.824121
      8.00533      5.23080      4.85268        -0.054749     -0.028086     -0.036909
     11.20747      5.23080      4.85268         0.052576     -0.026543     -0.035993
      8.00533      1.99568      1.61756        -0.054678     -0.074418     -0.669617
     11.20747      1.99568      1.61756         0.052440     -0.074132     -0.670906
      6.40427      3.23512      6.09212        -0.011017      0.000000      0.277169
      9.60640      3.23512      6.09212        -0.007750      0.000000      0.278094
      6.40427      0.00000      2.85700        -0.000096      0.000000      0.189144
      9.60640      0.00000      2.85700        -0.000837      0.000000      0.191560
      8.00533      1.23944      4.85268        -0.054749      0.028086     -0.036909
     11.20747      1.23944      4.85268         0.052576      0.026543     -0.035993
      8.00533      4.47456      1.61756        -0.054678      0.074418     -0.669617
     11.20747      4.47456      1.61756         0.052440      0.074132     -0.670906
      6.40342      3.23512     10.07493         0.010844      0.000000     -0.002888
      9.61138      3.23512     10.07653         0.001622      0.000000      0.009656
      6.40325      0.00000      6.85533        -0.011473      0.000000      0.002693
      9.60634      0.00000      6.85286        -0.004676      0.000000     -0.002776
      8.01012      5.23308     11.27172        -0.004860     -0.011595      0.018793
     11.21331      5.23310     11.29487         0.005482      0.005684     -0.003305
      8.00239      1.99096      8.08441         0.010829      0.003982      0.000868
     11.20947      1.99064      8.08530         0.009187     -0.004726     -0.000644
      6.41253      3.23512     12.50660        -0.005528      0.000000      0.004457
      9.60635      3.23512     12.50993         0.008376      0.000000      0.017484
      6.40262      0.00000      9.33755        -0.002288      0.000000     -0.012217
      9.60828      0.00000      9.33424        -0.004834      0.000000      0.001377
      8.01012      1.23716     11.27172        -0.004860      0.011595      0.018793
     11.21331      1.23714     11.29487         0.005482     -0.005684     -0.003305
      8.00239      4.47928      8.08441         0.010829     -0.003982      0.000868
     11.20947      4.47960      8.08530         0.009187      0.004726     -0.000644
      9.59627      0.00000     13.21364         0.011733      0.000000     -0.027609
      6.42872      0.00000     13.21627        -0.003599      0.000000     -0.001740
 -----------------------------------------------------------------------------------
    total drift:                                0.096271      0.000000     -0.115985


--------------------------------------------------------------------------------------------------------



  FREE ENERGIE OF THE ION-ELECTRON SYSTEM (eV)
  ---------------------------------------------------
  free  energy   TOTEN  =      -637.98644025 eV

  energy  without entropy=     -637.92886722  energy(sigma->0) =     -637.95765373
 
 d Force = 0.1037825E-02[ 0.414E-03, 0.166E-02]  d Energy = 0.1110553E-02-0.727E-04
 d Force =-0.2887888E+01[-0.287E+01,-0.290E+01]  d Ewald  =-0.2887902E+01 0.140E-04


--------------------------------------------------------------------------------------------------------


    POTLOK:  cpu time    0.0948: real time    0.0950


--------------------------------------------------------------------------------------------------------


 stress matrix after NEB project (eV)
    -21.71450      0.00000     -0.24867
      0.00000     -7.13695      0.00000
     -0.24867      0.00000     -6.38123
  FORCES: max atom, RMS     0.035182    0.009127
  FORCE total and by dimension    0.091274    0.030999
  Stress total and by dimension   23.733931   21.714501
 Quasi-Newton relaxation of ions (Broydens 2nd method)
  g(Force)  = 0.402E-03   g(Stress)= 0.000E+00

 retain information from N=  5 steps
 eigenvalues of (default step * inverse Hessian matrix)
  average eigenvalue of G=   3.1492
 eigenvalue spectrum of G is  6.5752  6.5752  0.9364  0.9364  0.7225


--------------------------------------------------------------------------------------------------------


  
 reached required accuracy - stopping structural energy minimisation
     LOOP+:  cpu time   65.1189: real time   65.3397
    4ORBIT:  cpu time    0.0000: real time    0.0000

 total amount of memory used by VASP MPI-rank0   130931. kBytes
=======================================================================

   base      :      30000. kBytes
   nonlr-proj:       5980. kBytes
   fftplans  :       3841. kBytes
   grid      :      10919. kBytes
   one-center:        311. kBytes
   wavefun   :      79880. kBytes
 
  
  
 General timing and accounting informations for this job:
 ========================================================
  
                  Total CPU time used (sec):     1169.370
                            User time (sec):     1145.201
                          System time (sec):       24.169
                         Elapsed time (sec):     1173.411
  
                   Maximum memory used (kb):      218268.
                   Average memory used (kb):           0.
  
                          Minor page faults:       127524
                          Major page faults:          184
                 Voluntary context switches:         2768
