<?xml version="1.0" encoding="ISO-8859-1"?>
<modeling>
 <generator>
  <i name="program" type="string">vasp </i>
  <i name="version" type="string">5.4.4.18Apr17-6-g9f103f2a35  </i>
  <i name="subversion" type="string">(build Feb 25 2019 10:51:38) complex            parallel </i>
  <i name="platform" type="string">LinuxIFC </i>
  <i name="date" type="string">2022 11 22 </i>
  <i name="time" type="string">09:23:49 </i>
 </generator>
 <incar>
  <i type="string" name="PREC">normal</i>
  <i type="string" name="ALGO"> Fast</i>
  <i type="int" name="ISPIN">     2</i>
  <i type="int" name="ICHARG">     2</i>
  <i type="int" name="NELM">    60</i>
  <i type="int" name="NELMIN">     4</i>
  <i type="int" name="IBRION">     1</i>
  <i name="EDIFF">      0.00001000</i>
  <i name="EDIFFG">     -0.05000000</i>
  <i type="int" name="NSW">   500</i>
  <i type="int" name="ISIF">     2</i>
  <i name="ENCUT">    500.00000000</i>
  <v name="MAGMOM">      0.60000000      0.60000000      0.60000000      0.60000000      0.60000000      0.60000000      0.60000000      0.60000000      0.60000000      0.60000000      0.60000000      0.60000000      0.60000000      0.60000000      0.60000000      0.60000000      0.60000000      0.60000000      0.60000000      0.60000000
      0.60000000      0.60000000      0.60000000      0.60000000      0.60000000      0.60000000      0.60000000      0.60000000      0.60000000      0.60000000      0.60000000      0.60000000      0.60000000      0.60000000      0.60000000      0.60000000      0.60000000      0.60000000      0.60000000      0.60000000
      0.60000000      0.60000000      0.60000000      0.60000000      0.60000000      0.60000000      0.60000000      0.60000000      0.60000000      0.60000000      0.60000000      0.60000000      0.60000000      0.60000000      0.60000000      0.60000000      0.60000000      0.60000000      0.60000000      0.60000000
      0.60000000      0.60000000      0.60000000      0.60000000      0.60000000      0.60000000      0.60000000      0.60000000      0.60000000      0.60000000      0.60000000      0.60000000      0.60000000      0.60000000      0.60000000      0.60000000      0.60000000      0.60000000      0.60000000      0.60000000
      0.60000000      0.60000000      0.60000000      0.60000000      0.60000000      0.60000000      0.60000000      0.60000000      0.60000000      0.60000000      0.60000000      0.60000000      0.60000000      0.60000000      0.60000000      0.60000000      0.60000000      0.60000000      0.60000000      0.60000000
</v>
  <i type="string" name="LREAL"> Auto</i>
  <i type="int" name="ISMEAR">     0</i>
  <i name="SIGMA">      0.05000000</i>
  <i type="logical" name="LWAVE"> F  </i>
  <i type="logical" name="LCHARG"> F  </i>
  <v type="int" name="KPOINT_BSE">    -1     0     0     0</v>
  <i type="int" name="NELM">    60</i>
  <i type="string" name="GGA"> Rp</i>
 </incar>
 <structure name="primitive_cell" >
  <crystal>
   <varray name="basis" >
    <v>      12.80853200       0.00000000       0.00000000 </v>
    <v>       0.00000000       6.47024300       0.00000000 </v>
    <v>       0.00000000       0.00000000      25.88097200 </v>
   </varray>
   <i name="volume">   2144.86781344 </i>
   <varray name="rec_basis" >
    <v>       0.07807296       0.00000000       0.00000000 </v>
    <v>       0.00000000       0.15455370       0.00000000 </v>
    <v>       0.00000000       0.00000000       0.03863843 </v>
   </varray>
  </crystal>
  <varray name="positions" >
   <v>       0.12500000      -0.50000000       0.18750000 </v>
   <v>       0.12500000      -0.19156000       0.18750000 </v>
   <v>       0.12500000       0.19156000       0.18750000 </v>
   <v>       0.00000000      -0.50000000       0.13961000 </v>
   <v>       0.25000000      -0.50000000       0.13961000 </v>
   <v>       0.00000000      -0.50000000       0.23539000 </v>
   <v>       0.25000000      -0.50000000       0.23539000 </v>
   <v>       0.37500000      -0.50000000       0.18750000 </v>
   <v>      -0.12500000      -0.50000000       0.18750000 </v>
   <v>       0.12500000       0.30844000       0.06250000 </v>
   <v>       0.12500000      -0.30844000       0.06250000 </v>
   <v>       0.12481715       0.30763770       0.31269691 </v>
   <v>       0.12481715      -0.30763770       0.31269691 </v>
   <v>       0.00000000      -0.50000000       0.06250000 </v>
   <v>       0.25000000      -0.50000000       0.06250000 </v>
   <v>       0.00000000       0.00000000       0.18750000 </v>
   <v>       0.25000000       0.00000000       0.18750000 </v>
   <v>       0.00001392      -0.50000000       0.31295959 </v>
   <v>       0.24992868      -0.50000000       0.31298735 </v>
   <v>       0.37500000      -0.19156000       0.18750000 </v>
   <v>       0.37500000       0.19156000       0.18750000 </v>
   <v>      -0.12500000      -0.19156000       0.18750000 </v>
   <v>      -0.12500000       0.19156000       0.18750000 </v>
   <v>       0.00000000       0.00000000       0.11039000 </v>
   <v>       0.25000000       0.00000000       0.11039000 </v>
   <v>       0.24968841       0.00000000       0.26482941 </v>
   <v>       0.00015426       0.00000000       0.26490926 </v>
   <v>       0.12500000       0.00000000       0.06250000 </v>
   <v>       0.12490588       0.00000000       0.31304178 </v>
   <v>      -0.12477425       0.30768253       0.31236141 </v>
   <v>      -0.12477425      -0.30768253       0.31236141 </v>
   <v>       0.37500000       0.30844000       0.06250000 </v>
   <v>       0.37500000      -0.30844000       0.06250000 </v>
   <v>      -0.12500000       0.30844000       0.06250000 </v>
   <v>      -0.12500000      -0.30844000       0.06250000 </v>
   <v>       0.37495155       0.30757951       0.31248712 </v>
   <v>       0.37495155      -0.30757951       0.31248712 </v>
   <v>      -0.50000000      -0.50000000       0.13961000 </v>
   <v>      -0.25000000      -0.50000000       0.13961000 </v>
   <v>      -0.50000000      -0.50000000       0.23539000 </v>
   <v>      -0.25000000      -0.50000000       0.23539000 </v>
   <v>       0.25013556      -0.50000000       0.38963386 </v>
   <v>      -0.00016693      -0.50000000       0.38966546 </v>
   <v>       0.37500000       0.00000000       0.06250000 </v>
   <v>      -0.12500000       0.00000000       0.06250000 </v>
   <v>      -0.12483336       0.00000000       0.31269277 </v>
   <v>       0.37475310       0.00000000       0.31277418 </v>
   <v>       0.00000000       0.00000000       0.01461000 </v>
   <v>       0.25000000       0.00000000       0.01461000 </v>
   <v>      -0.00048083       0.00000000       0.36112862 </v>
   <v>       0.25033888       0.00000000       0.36117246 </v>
   <v>      -0.50000000      -0.50000000       0.06250000 </v>
   <v>      -0.25000000      -0.50000000       0.06250000 </v>
   <v>      -0.50000000       0.00000000       0.18750000 </v>
   <v>      -0.25000000       0.00000000       0.18750000 </v>
   <v>       0.49981304      -0.50000000       0.31274043 </v>
   <v>      -0.24992442      -0.50000000       0.31269713 </v>
   <v>      -0.50000000       0.00000000       0.11039000 </v>
   <v>      -0.25000000       0.00000000       0.11039000 </v>
   <v>       0.49986712       0.00000000       0.26485663 </v>
   <v>      -0.25003749       0.00000000       0.26474570 </v>
   <v>      -0.37500000      -0.50000000       0.18750000 </v>
   <v>       0.12499015      -0.50000000       0.43806198 </v>
   <v>      -0.37500000      -0.19156000       0.18750000 </v>
   <v>      -0.37500000       0.19156000       0.18750000 </v>
   <v>       0.12486451      -0.19103358       0.43608892 </v>
   <v>       0.12486451       0.19103358       0.43608892 </v>
   <v>      -0.24948113      -0.50000000       0.38915329 </v>
   <v>       0.49958716      -0.50000000       0.38916592 </v>
   <v>      -0.12516282      -0.50000000       0.43824676 </v>
   <v>       0.37530277      -0.50000000       0.43824627 </v>
   <v>      -0.37523554       0.30779040       0.31231698 </v>
   <v>      -0.37523554      -0.30779040       0.31231698 </v>
   <v>      -0.37500000       0.30844000       0.06250000 </v>
   <v>      -0.37500000      -0.30844000       0.06250000 </v>
   <v>      -0.24944080       0.00000000       0.36050739 </v>
   <v>       0.49930877       0.00000000       0.36066782 </v>
   <v>      -0.50000000       0.00000000       0.01461000 </v>
   <v>      -0.25000000       0.00000000       0.01461000 </v>
   <v>      -0.12545694      -0.19091069       0.43750236 </v>
   <v>      -0.12545694       0.19091069       0.43750236 </v>
   <v>       0.37593323      -0.19087007       0.43768716 </v>
   <v>       0.37593323       0.19087007       0.43768716 </v>
   <v>      -0.00010566       0.00000000       0.44178380 </v>
   <v>       0.25018733       0.00000000       0.44185293 </v>
   <v>       0.24992930      -0.50000000       0.48367238 </v>
   <v>       0.00012725      -0.50000000       0.48368250 </v>
   <v>      -0.37500000       0.00000000       0.06250000 </v>
   <v>      -0.37515648       0.00000000       0.31268569 </v>
   <v>      -0.25075675       0.00000000       0.44073788 </v>
   <v>      -0.49890786       0.00000000       0.44092879 </v>
   <v>      -0.25131227      -0.50000000       0.48319728 </v>
   <v>      -0.49850549      -0.50000000       0.48314824 </v>
   <v>      -0.37492227      -0.50000000       0.43711872 </v>
   <v>       0.00174111       0.00000000      -0.48883498 </v>
   <v>       0.24828980       0.00000000      -0.48874301 </v>
   <v>      -0.37486013      -0.19178320       0.43353555 </v>
   <v>      -0.37486013       0.19178320       0.43353555 </v>
   <v>      -0.26037745       0.00000000      -0.49001560 </v>
   <v>      -0.48882919       0.00000000      -0.48983785 </v>
  </varray>
 </structure>
 <varray name="primitive_index" >
  <v type="int" >        1 </v>
  <v type="int" >       21 </v>
  <v type="int" >       29 </v>
  <v type="int" >       17 </v>
  <v type="int" >       18 </v>
  <v type="int" >       25 </v>
  <v type="int" >       26 </v>
  <v type="int" >        2 </v>
  <v type="int" >       52 </v>
  <v type="int" >       23 </v>
  <v type="int" >       31 </v>
  <v type="int" >       39 </v>
  <v type="int" >       47 </v>
  <v type="int" >        5 </v>
  <v type="int" >        6 </v>
  <v type="int" >        7 </v>
  <v type="int" >        8 </v>
  <v type="int" >       13 </v>
  <v type="int" >       14 </v>
  <v type="int" >       22 </v>
  <v type="int" >       30 </v>
  <v type="int" >       72 </v>
  <v type="int" >       80 </v>
  <v type="int" >       27 </v>
  <v type="int" >       28 </v>
  <v type="int" >       36 </v>
  <v type="int" >       35 </v>
  <v type="int" >        3 </v>
  <v type="int" >       11 </v>
  <v type="int" >       90 </v>
  <v type="int" >       98 </v>
  <v type="int" >       24 </v>
  <v type="int" >       32 </v>
  <v type="int" >       74 </v>
  <v type="int" >       82 </v>
  <v type="int" >       40 </v>
  <v type="int" >       48 </v>
  <v type="int" >       67 </v>
  <v type="int" >       68 </v>
  <v type="int" >       75 </v>
  <v type="int" >       76 </v>
  <v type="int" >       34 </v>
  <v type="int" >       33 </v>
  <v type="int" >        4 </v>
  <v type="int" >       54 </v>
  <v type="int" >       62 </v>
  <v type="int" >       12 </v>
  <v type="int" >       19 </v>
  <v type="int" >       20 </v>
  <v type="int" >       43 </v>
  <v type="int" >       44 </v>
  <v type="int" >       55 </v>
  <v type="int" >       56 </v>
  <v type="int" >       57 </v>
  <v type="int" >       58 </v>
  <v type="int" >       63 </v>
  <v type="int" >       64 </v>
  <v type="int" >       77 </v>
  <v type="int" >       78 </v>
  <v type="int" >       85 </v>
  <v type="int" >       86 </v>
  <v type="int" >       51 </v>
  <v type="int" >        9 </v>
  <v type="int" >       71 </v>
  <v type="int" >       79 </v>
  <v type="int" >       37 </v>
  <v type="int" >       45 </v>
  <v type="int" >       84 </v>
  <v type="int" >       83 </v>
  <v type="int" >       60 </v>
  <v type="int" >       10 </v>
  <v type="int" >       89 </v>
  <v type="int" >       97 </v>
  <v type="int" >       73 </v>
  <v type="int" >       81 </v>
  <v type="int" >       94 </v>
  <v type="int" >       93 </v>
  <v type="int" >       69 </v>
  <v type="int" >       70 </v>
  <v type="int" >       88 </v>
  <v type="int" >       96 </v>
  <v type="int" >       38 </v>
  <v type="int" >       46 </v>
  <v type="int" >       15 </v>
  <v type="int" >       16 </v>
  <v type="int" >       42 </v>
  <v type="int" >       41 </v>
  <v type="int" >       53 </v>
  <v type="int" >       61 </v>
  <v type="int" >       66 </v>
  <v type="int" >       65 </v>
  <v type="int" >       92 </v>
  <v type="int" >       91 </v>
  <v type="int" >       59 </v>
  <v type="int" >       50 </v>
  <v type="int" >       49 </v>
  <v type="int" >       87 </v>
  <v type="int" >       95 </v>
  <v type="int" >       99 </v>
  <v type="int" >      100 </v>
 </varray>
 <kpoints>
  <generation param="Gamma">
   <v type="int" name="divisions">       3        3        1 </v>
   <v name="usershift">      0.00000000       0.00000000       0.00000000 </v>
   <v name="genvec1">      0.33333333       0.00000000       0.00000000 </v>
   <v name="genvec2">      0.00000000       0.33333333       0.00000000 </v>
   <v name="genvec3">      0.00000000       0.00000000       1.00000000 </v>
   <v name="shift">      0.00000000       0.00000000       0.00000000 </v>
  </generation>
  <varray name="kpointlist" >
   <v>       0.00000000       0.00000000       0.00000000 </v>
   <v>       0.33333333       0.00000000       0.00000000 </v>
   <v>       0.00000000       0.33333333       0.00000000 </v>
   <v>       0.33333333       0.33333333       0.00000000 </v>
  </varray>
  <varray name="weights" >
   <v>       0.11111111 </v>
   <v>       0.22222222 </v>
   <v>       0.22222222 </v>
   <v>       0.44444444 </v>
  </varray>
 </kpoints>
 <parameters>
  <separator name="general" >
   <i type="string" name="SYSTEM">unknown system</i>
   <i type="logical" name="LCOMPAT"> F  </i>
  </separator>
  <separator name="electronic" >
   <i type="string" name="PREC">normal</i>
   <i name="ENMAX">    500.00000000</i>
   <i name="ENAUG">    605.39200000</i>
   <i name="EDIFF">      0.00001000</i>
   <i type="int" name="IALGO">    68</i>
   <i type="int" name="IWAVPR">    11</i>
   <i type="int" name="NBANDS">   448</i>
   <i name="NELECT">    696.00000000</i>
   <i type="int" name="TURBO">     0</i>
   <i type="int" name="IRESTART">     0</i>
   <i type="int" name="NREBOOT">     0</i>
   <i type="int" name="NMIN">     0</i>
   <i name="EREF">      0.00000000</i>
   <separator name="electronic smearing" >
    <i type="int" name="ISMEAR">     0</i>
    <i name="SIGMA">      0.05000000</i>
    <i name="KSPACING">      0.50000000</i>
    <i type="logical" name="KGAMMA"> T  </i>
   </separator>
   <separator name="electronic projectors" >
    <i type="logical" name="LREAL"> T  </i>
    <v name="ROPT">     -0.00050000     -0.00050000     -0.00050000     -0.00050000</v>
    <i type="int" name="LMAXPAW">  -100</i>
    <i type="int" name="LMAXMIX">     2</i>
    <i type="logical" name="NLSPLINE"> F  </i>
   </separator>
   <separator name="electronic startup" >
    <i type="int" name="ISTART">     0</i>
    <i type="int" name="ICHARG">     2</i>
    <i type="int" name="INIWAV">     1</i>
   </separator>
   <separator name="electronic spin" >
    <i type="int" name="ISPIN">     2</i>
    <i type="logical" name="LNONCOLLINEAR"> F  </i>
    <v name="MAGMOM">      0.60000000      0.60000000      0.60000000      0.60000000      0.60000000      0.60000000      0.60000000      0.60000000      0.60000000      0.60000000      0.60000000      0.60000000      0.60000000      0.60000000      0.60000000      0.60000000      0.60000000      0.60000000      0.60000000      0.60000000
      0.60000000      0.60000000      0.60000000      0.60000000      0.60000000      0.60000000      0.60000000      0.60000000      0.60000000      0.60000000      0.60000000      0.60000000      0.60000000      0.60000000      0.60000000      0.60000000      0.60000000      0.60000000      0.60000000      0.60000000
      0.60000000      0.60000000      0.60000000      0.60000000      0.60000000      0.60000000      0.60000000      0.60000000      0.60000000      0.60000000      0.60000000      0.60000000      0.60000000      0.60000000      0.60000000      0.60000000      0.60000000      0.60000000      0.60000000      0.60000000
      0.60000000      0.60000000      0.60000000      0.60000000      0.60000000      0.60000000      0.60000000      0.60000000      0.60000000      0.60000000      0.60000000      0.60000000      0.60000000      0.60000000      0.60000000      0.60000000      0.60000000      0.60000000      0.60000000      0.60000000
      0.60000000      0.60000000      0.60000000      0.60000000      0.60000000      0.60000000      0.60000000      0.60000000      0.60000000      0.60000000      0.60000000      0.60000000      0.60000000      0.60000000      0.60000000      0.60000000      0.60000000      0.60000000      0.60000000      0.60000000
</v>
    <i name="NUPDOWN">     -1.00000000</i>
    <i type="logical" name="LSORBIT"> F  </i>
    <v name="SAXIS">      0.00000000      0.00000000      1.00000000</v>
    <i type="logical" name="LSPIRAL"> F  </i>
    <v name="QSPIRAL">      0.00000000      0.00000000      0.00000000</v>
    <i type="logical" name="LZEROZ"> F  </i>
   </separator>
   <separator name="electronic exchange-correlation" >
    <i type="logical" name="LASPH"> F  </i>
    <i type="logical" name="LMETAGGA"> F  </i>
   </separator>
   <separator name="electronic convergence" >
    <i type="int" name="NELM">    60</i>
    <i type="int" name="NELMDL">    -5</i>
    <i type="int" name="NELMIN">     4</i>
    <i name="ENINI">    500.00000000</i>
    <separator name="electronic convergence detail" >
     <i type="logical" name="LDIAG"> T  </i>
     <i type="logical" name="LSUBROT"> F  </i>
     <i name="WEIMIN">      0.00100000</i>
     <i name="EBREAK">      0.00000001</i>
     <i name="DEPER">      0.30000000</i>
     <i type="int" name="NRMM">     4</i>
     <i name="TIME">      0.40000000</i>
    </separator>
   </separator>
   <separator name="electronic mixer" >
    <i name="AMIX">      0.40000000</i>
    <i name="BMIX">      1.00000000</i>
    <i name="AMIN">      0.10000000</i>
    <i name="AMIX_MAG">      1.60000000</i>
    <i name="BMIX_MAG">      1.00000000</i>
    <separator name="electronic mixer details" >
     <i type="int" name="IMIX">     4</i>
     <i type="logical" name="MIXFIRST"> F  </i>
     <i type="int" name="MAXMIX">   -45</i>
     <i name="WC">    100.00000000</i>
     <i type="int" name="INIMIX">     1</i>
     <i type="int" name="MIXPRE">     1</i>
     <i type="int" name="MREMOVE">     5</i>
    </separator>
   </separator>
   <separator name="electronic dipolcorrection" >
    <i type="logical" name="LDIPOL"> F  </i>
    <i type="logical" name="LMONO"> F  </i>
    <i type="int" name="IDIPOL">     0</i>
    <i name="EPSILON">      1.00000000</i>
    <v name="DIPOL">   -100.00000000   -100.00000000   -100.00000000</v>
    <i name="EFIELD">      0.00000000</i>
   </separator>
  </separator>
  <separator name="grids" >
   <i type="int" name="NGX">    70</i>
   <i type="int" name="NGY">    36</i>
   <i type="int" name="NGZ">   144</i>
   <i type="int" name="NGXF">   140</i>
   <i type="int" name="NGYF">    72</i>
   <i type="int" name="NGZF">   288</i>
   <i type="logical" name="ADDGRID"> F  </i>
  </separator>
  <separator name="ionic" >
   <i type="int" name="NSW">   500</i>
   <i type="int" name="IBRION">     1</i>
   <i type="int" name="MDALGO">     0</i>
   <i type="int" name="ISIF">     2</i>
   <i name="PSTRESS">      0.00000000</i>
   <i name="EDIFFG">     -0.05000000</i>
   <i type="int" name="NFREE">     0</i>
   <i name="POTIM">      0.50000000</i>
   <i name="SMASS">     -3.00000000</i>
   <i name="SCALEE">      1.00000000</i>
  </separator>
  <separator name="ionic md" >
   <i name="TEBEG">      0.00010000</i>
   <i name="TEEND">      0.00010000</i>
   <i type="int" name="NBLOCK">     1</i>
   <i type="int" name="KBLOCK">   500</i>
   <i type="int" name="NPACO">   256</i>
   <i name="APACO">     16.00000000</i>
  </separator>
  <separator name="symmetry" >
   <i type="int" name="ISYM">     2</i>
   <i name="SYMPREC">      0.00001000</i>
  </separator>
  <separator name="dos" >
   <i type="int" name="LORBIT">     0</i>
   <v name="RWIGS">     -1.00000000     -1.00000000     -1.00000000     -1.00000000</v>
   <i type="int" name="NEDOS">   301</i>
   <i name="EMIN">     10.00000000</i>
   <i name="EMAX">    -10.00000000</i>
   <i name="EFERMI">      0.00000000</i>
  </separator>
  <separator name="writing" >
   <i type="int" name="NWRITE">     2</i>
   <i type="logical" name="LWAVE"> F  </i>
   <i type="logical" name="LDOWNSAMPLE"> F  </i>
   <i type="logical" name="LCHARG"> F  </i>
   <i type="logical" name="LPARD"> F  </i>
   <i type="logical" name="LVTOT"> F  </i>
   <i type="logical" name="LVHAR"> F  </i>
   <i type="logical" name="LELF"> F  </i>
   <i type="logical" name="LOPTICS"> F  </i>
   <v name="STM">      0.00000000      0.00000000      0.00000000      0.00000000      0.00000000      0.00000000      0.00000000</v>
  </separator>
  <separator name="performance" >
   <i type="int" name="NPAR">     4</i>
   <i type="int" name="NSIM">     4</i>
   <i type="int" name="NBLK">    -1</i>
   <i type="logical" name="LPLANE"> T  </i>
   <i type="logical" name="LSCALAPACK"> T  </i>
   <i type="logical" name="LSCAAWARE"> F  </i>
   <i type="logical" name="LSCALU"> F  </i>
   <i type="logical" name="LASYNC"> F  </i>
   <i type="logical" name="LORBITALREAL"> F  </i>
  </separator>
  <separator name="miscellaneous" >
   <i type="int" name="IDIOT">     3</i>
   <i type="int" name="ISPECIAL">     0</i>
   <i type="logical" name="LMUSIC"> F  </i>
   <v name="POMASS">    192.22000000     16.00000000    192.22000000     16.00000000</v>
   <v name="DARWINR">      0.00000000      0.00000000      0.00000000      0.00000000</v>
   <v name="DARWINV">      1.00000000      1.00000000      1.00000000      1.00000000</v>
   <i type="logical" name="LCORR"> T  </i>
  </separator>
  <i type="logical" name="GGA_COMPAT"> T  </i>
  <i type="logical" name="LBERRY"> F  </i>
  <i type="int" name="ICORELEVEL">     0</i>
  <i type="logical" name="LDAU"> F  </i>
  <i type="int" name="I_CONSTRAINED_M">     0</i>
  <separator name="electronic exchange-correlation" >
   <i type="string" name="GGA">RP</i>
   <i type="int" name="VOSKOWN">     0</i>
   <i type="logical" name="LHFCALC"> F  </i>
   <i type="string" name="PRECFOCK"></i>
   <i type="logical" name="LSYMGRAD"> F  </i>
   <i type="logical" name="LHFONE"> F  </i>
   <i type="logical" name="LRHFCALC"> F  </i>
   <i type="logical" name="LTHOMAS"> F  </i>
   <i type="logical" name="LMODELHF"> F  </i>
   <i name="ENCUT4O">     -1.00000000</i>
   <i type="int" name="EXXOEP">     0</i>
   <i type="int" name="FOURORBIT">     0</i>
   <i name="AEXX">      0.00000000</i>
   <i name="HFALPHA">      0.00000000</i>
   <i name="MCALPHA">      0.00000000</i>
   <i name="ALDAX">      1.00000000</i>
   <i name="AGGAX">      1.00000000</i>
   <i name="ALDAC">      1.00000000</i>
   <i name="AGGAC">      1.00000000</i>
   <i type="int" name="NKREDX">     1</i>
   <i type="int" name="NKREDY">     1</i>
   <i type="int" name="NKREDZ">     1</i>
   <i type="logical" name="SHIFTRED"> F  </i>
   <i type="logical" name="ODDONLY"> F  </i>
   <i type="logical" name="EVENONLY"> F  </i>
   <i type="int" name="LMAXFOCK">     0</i>
   <i type="int" name="NMAXFOCKAE">     0</i>
   <i type="logical" name="LFOCKAEDFT"> F  </i>
   <i name="HFSCREEN">      0.00000000</i>
   <i name="HFSCREENC">      0.00000000</i>
   <i type="int" name="NBANDSGWLOW">     0</i>
  </separator>
  <separator name="vdW DFT" >
   <i type="logical" name="LUSE_VDW"> F  </i>
   <i name="Zab_VDW">     -0.84910000</i>
   <i name="PARAM1">      0.12340000</i>
   <i name="PARAM2">      1.00000000</i>
   <i name="PARAM3">      0.00000000</i>
  </separator>
  <separator name="model GW" >
   <i type="int" name="MODEL_GW">     0</i>
   <i name="MODEL_EPS0">     12.86920688</i>
   <i name="MODEL_ALPHA">      1.00000000</i>
  </separator>
  <separator name="linear response parameters" >
   <i type="logical" name="LEPSILON"> F  </i>
   <i type="logical" name="LRPA"> F  </i>
   <i type="logical" name="LNABLA"> F  </i>
   <i type="logical" name="LVEL"> F  </i>
   <i type="int" name="KINTER">     0</i>
   <i name="CSHIFT">      0.10000000</i>
   <i name="OMEGAMAX">     -1.00000000</i>
   <i name="DEG_THRESHOLD">      0.00200000</i>
   <i name="RTIME">     -0.10000000</i>
   <i name="WPLASMAI">      0.00000000</i>
   <v name="DFIELD">      0.00000000      0.00000000      0.00000000</v>
   <v name="WPLASMA">      0.00000000      0.00000000      0.00000000      0.00000000      0.00000000      0.00000000      0.00000000      0.00000000      0.00000000</v>
  </separator>
  <separator name="orbital magnetization" >
   <i type="logical" name="NUCIND"> F  </i>
   <v name="MAGPOS">      0.00000000      0.00000000      0.00000000</v>
   <i type="logical" name="LNICSALL"> T  </i>
   <i type="logical" name="ORBITALMAG"> F  </i>
   <i type="logical" name="LMAGBLOCH"> F  </i>
   <i type="logical" name="LCHIMAG"> F  </i>
   <i type="logical" name="LGAUGE"> T  </i>
   <i type="int" name="MAGATOM">     0</i>
   <v name="MAGDIPOL">      0.00000000      0.00000000      0.00000000</v>
   <v name="AVECCONST">      0.00000000      0.00000000      0.00000000</v>
  </separator>
  <separator name="response functions" >
   <i type="logical" name="LADDER"> F  </i>
   <i type="logical" name="LRPAFORCE"> F  </i>
   <i type="logical" name="LFXC"> F  </i>
   <i type="logical" name="LHARTREE"> T  </i>
   <i type="int" name="IBSE">     0</i>
   <v type="int" name="KPOINT">    -1     0     0     0</v>
   <i type="logical" name="LTCTE"> F  </i>
   <i type="logical" name="LTETE"> F  </i>
   <i type="logical" name="LTRIPLET"> F  </i>
   <i type="logical" name="LFXCEPS"> F  </i>
   <i type="logical" name="LFXHEG"> F  </i>
   <i type="int" name="NATURALO">     2</i>
   <i type="logical" name="L2ORDER"> F  </i>
   <i type="logical" name="LMP2LT"> F  </i>
   <i type="logical" name="LUSEW"> F  </i>
   <i name="ENCUTGW">     -2.00000000</i>
   <i name="ENCUTGWSOFT">     -2.00000000</i>
   <i name="ENCUTLF">     -1.00000000</i>
   <i type="int" name="LMAXMP2">    -1</i>
   <i name="SCISSOR">      0.00000000</i>
   <i type="int" name="NOMEGA">     0</i>
   <i type="int" name="NOMEGAR">     0</i>
   <i type="int" name="NBANDSGW">    -1</i>
   <i type="int" name="NBANDSO">    -1</i>
   <i type="int" name="NBANDSV">    -1</i>
   <i type="int" name="NELM">    60</i>
   <i type="int" name="NELMHF">     1</i>
   <i type="int" name="DIM">     3</i>
   <i type="int" name="ANTIRES">     0</i>
   <i name="OMEGAMAX">    -30.00000000</i>
   <i name="OMEGAMIN">    -30.00000000</i>
   <i name="OMEGATL">   -200.00000000</i>
   <i type="int" name="OMEGAGRID">   140</i>
   <i name="CSHIFT">     -0.10000000</i>
   <i type="logical" name="SELFENERGY"> F  </i>
   <i type="logical" name="LSPECTRAL"> F  </i>
   <i type="logical" name="LSPECTRALGW"> F  </i>
   <i type="logical" name="LSINGLES"> F  </i>
   <i type="logical" name="LFERMIGW"> F  </i>
   <i type="logical" name="ODDONLYGW"> F  </i>
   <i type="logical" name="EVENONLYGW"> F  </i>
   <i type="int" name="NKREDLFX">     1</i>
   <i type="int" name="NKREDLFY">     1</i>
   <i type="int" name="NKREDLFZ">     1</i>
   <i type="int" name="MAXMEM">  2800</i>
   <i type="int" name="TELESCOPE">     0</i>
   <i type="int" name="TAUPAR">     1</i>
   <i type="int" name="OMEGAPAR">    -1</i>
   <i name="LAMBDA">      1.00000000</i>
  </separator>
  <separator name="External order field" >
   <i name="OFIELD_KAPPA">      0.00000000</i>
   <v name="OFIELD_K">      0.00000000      0.00000000      0.00000000</v>
   <i name="OFIELD_Q6_NEAR">      0.00000000</i>
   <i name="OFIELD_Q6_FAR">      0.00000000</i>
   <i name="OFIELD_A">      0.00000000</i>
  </separator>
  <separator name="solvation model" >
   <i type="logical" name="LSOL"> F  </i>
  </separator>
 </parameters>
 <atominfo>
  <atoms>     100 </atoms>
  <types>       4 </types>
  <array name="atoms" >
   <dimension dim="1">ion</dimension>
   <field type="string">element</field>
   <field type="int">atomtype</field>
   <set>
    <rc><c>Ir</c><c>   1</c></rc>
    <rc><c>Ir</c><c>   1</c></rc>
    <rc><c>Ir</c><c>   1</c></rc>
    <rc><c>Ir</c><c>   1</c></rc>
    <rc><c>Ir</c><c>   1</c></rc>
    <rc><c>Ir</c><c>   1</c></rc>
    <rc><c>Ir</c><c>   1</c></rc>
    <rc><c>Ir</c><c>   1</c></rc>
    <rc><c>Ir</c><c>   1</c></rc>
    <rc><c>Ir</c><c>   1</c></rc>
    <rc><c>Ir</c><c>   1</c></rc>
    <rc><c>Ir</c><c>   1</c></rc>
    <rc><c>Ir</c><c>   1</c></rc>
    <rc><c>Ir</c><c>   1</c></rc>
    <rc><c>Ir</c><c>   1</c></rc>
    <rc><c>Ir</c><c>   1</c></rc>
    <rc><c>O </c><c>   2</c></rc>
    <rc><c>O </c><c>   2</c></rc>
    <rc><c>O </c><c>   2</c></rc>
    <rc><c>O </c><c>   2</c></rc>
    <rc><c>O </c><c>   2</c></rc>
    <rc><c>O </c><c>   2</c></rc>
    <rc><c>O </c><c>   2</c></rc>
    <rc><c>O </c><c>   2</c></rc>
    <rc><c>O </c><c>   2</c></rc>
    <rc><c>O </c><c>   2</c></rc>
    <rc><c>O </c><c>   2</c></rc>
    <rc><c>O </c><c>   2</c></rc>
    <rc><c>O </c><c>   2</c></rc>
    <rc><c>O </c><c>   2</c></rc>
    <rc><c>O </c><c>   2</c></rc>
    <rc><c>O </c><c>   2</c></rc>
    <rc><c>O </c><c>   2</c></rc>
    <rc><c>O </c><c>   2</c></rc>
    <rc><c>O </c><c>   2</c></rc>
    <rc><c>O </c><c>   2</c></rc>
    <rc><c>O </c><c>   2</c></rc>
    <rc><c>O </c><c>   2</c></rc>
    <rc><c>O </c><c>   2</c></rc>
    <rc><c>O </c><c>   2</c></rc>
    <rc><c>O </c><c>   2</c></rc>
    <rc><c>O </c><c>   2</c></rc>
    <rc><c>O </c><c>   2</c></rc>
    <rc><c>O </c><c>   2</c></rc>
    <rc><c>O </c><c>   2</c></rc>
    <rc><c>O </c><c>   2</c></rc>
    <rc><c>O </c><c>   2</c></rc>
    <rc><c>O </c><c>   2</c></rc>
    <rc><c>O </c><c>   2</c></rc>
    <rc><c>O </c><c>   2</c></rc>
    <rc><c>Ir</c><c>   3</c></rc>
    <rc><c>Ir</c><c>   3</c></rc>
    <rc><c>Ir</c><c>   3</c></rc>
    <rc><c>Ir</c><c>   3</c></rc>
    <rc><c>Ir</c><c>   3</c></rc>
    <rc><c>Ir</c><c>   3</c></rc>
    <rc><c>Ir</c><c>   3</c></rc>
    <rc><c>Ir</c><c>   3</c></rc>
    <rc><c>Ir</c><c>   3</c></rc>
    <rc><c>Ir</c><c>   3</c></rc>
    <rc><c>Ir</c><c>   3</c></rc>
    <rc><c>Ir</c><c>   3</c></rc>
    <rc><c>Ir</c><c>   3</c></rc>
    <rc><c>Ir</c><c>   3</c></rc>
    <rc><c>Ir</c><c>   3</c></rc>
    <rc><c>Ir</c><c>   3</c></rc>
    <rc><c>O </c><c>   4</c></rc>
    <rc><c>O </c><c>   4</c></rc>
    <rc><c>O </c><c>   4</c></rc>
    <rc><c>O </c><c>   4</c></rc>
    <rc><c>O </c><c>   4</c></rc>
    <rc><c>O </c><c>   4</c></rc>
    <rc><c>O </c><c>   4</c></rc>
    <rc><c>O </c><c>   4</c></rc>
    <rc><c>O </c><c>   4</c></rc>
    <rc><c>O </c><c>   4</c></rc>
    <rc><c>O </c><c>   4</c></rc>
    <rc><c>O </c><c>   4</c></rc>
    <rc><c>O </c><c>   4</c></rc>
    <rc><c>O </c><c>   4</c></rc>
    <rc><c>O </c><c>   4</c></rc>
    <rc><c>O </c><c>   4</c></rc>
    <rc><c>O </c><c>   4</c></rc>
    <rc><c>O </c><c>   4</c></rc>
    <rc><c>O </c><c>   4</c></rc>
    <rc><c>O </c><c>   4</c></rc>
    <rc><c>O </c><c>   4</c></rc>
    <rc><c>O </c><c>   4</c></rc>
    <rc><c>O </c><c>   4</c></rc>
    <rc><c>O </c><c>   4</c></rc>
    <rc><c>O </c><c>   4</c></rc>
    <rc><c>O </c><c>   4</c></rc>
    <rc><c>O </c><c>   4</c></rc>
    <rc><c>O </c><c>   4</c></rc>
    <rc><c>O </c><c>   4</c></rc>
    <rc><c>O </c><c>   4</c></rc>
    <rc><c>O </c><c>   4</c></rc>
    <rc><c>O </c><c>   4</c></rc>
    <rc><c>O </c><c>   4</c></rc>
    <rc><c>O </c><c>   4</c></rc>
   </set>
  </array>
  <array name="atomtypes" >
   <dimension dim="1">type</dimension>
   <field type="int">atomspertype</field>
   <field type="string">element</field>
   <field>mass</field>
   <field>valence</field>
   <field type="string">pseudopotential</field>
   <set>
    <rc><c>  16</c><c>Ir</c><c>    192.22000000</c><c>      9.00000000</c><c>  PAW_PBE Ir 06Sep2000                  </c></rc>
    <rc><c>  34</c><c>O </c><c>     16.00000000</c><c>      6.00000000</c><c>  PAW_PBE O 08Apr2002                   </c></rc>
    <rc><c>  16</c><c>Ir</c><c>    192.22000000</c><c>      9.00000000</c><c>  PAW_PBE Ir 06Sep2000                  </c></rc>
    <rc><c>  34</c><c>O </c><c>     16.00000000</c><c>      6.00000000</c><c>  PAW_PBE O 08Apr2002                   </c></rc>
   </set>
  </array>
 </atominfo>
 <structure name="initialpos" >
  <crystal>
   <varray name="basis" >
    <v>      12.80853200       0.00000000       0.00000000 </v>
    <v>       0.00000000       6.47024300       0.00000000 </v>
    <v>       0.00000000       0.00000000      25.88097200 </v>
   </varray>
   <i name="volume">   2144.86781344 </i>
   <varray name="rec_basis" >
    <v>       0.07807296       0.00000000       0.00000000 </v>
    <v>       0.00000000       0.15455370       0.00000000 </v>
    <v>       0.00000000       0.00000000       0.03863843 </v>
   </varray>
  </crystal>
  <varray name="positions" >
   <v>       0.12500000       0.50000000       0.18750000 </v>
   <v>       0.37500000       0.50000000       0.18750000 </v>
   <v>       0.12500000       0.00000000       0.06250000 </v>
   <v>       0.37500000       0.00000000       0.06250000 </v>
   <v>       0.00000000       0.50000000       0.06250000 </v>
   <v>       0.25000000       0.50000000       0.06250000 </v>
   <v>       0.00000000       0.00000000       0.18750000 </v>
   <v>       0.25000000       0.00000000       0.18750000 </v>
   <v>       0.12499015       0.50000000       0.43806198 </v>
   <v>       0.37530277       0.50000000       0.43824627 </v>
   <v>       0.12490588       0.00000000       0.31304178 </v>
   <v>       0.37475310       0.00000000       0.31277418 </v>
   <v>       0.00001392       0.50000000       0.31295959 </v>
   <v>       0.24992868       0.50000000       0.31298735 </v>
   <v>       0.99989434       0.00000000       0.44178380 </v>
   <v>       0.25018733       0.00000000       0.44185293 </v>
   <v>       0.00000000       0.50000000       0.13961000 </v>
   <v>       0.25000000       0.50000000       0.13961000 </v>
   <v>       0.00000000       0.00000000       0.01461000 </v>
   <v>       0.25000000       0.00000000       0.01461000 </v>
   <v>       0.12500000       0.80844000       0.18750000 </v>
   <v>       0.37500000       0.80844000       0.18750000 </v>
   <v>       0.12500000       0.30844000       0.06250000 </v>
   <v>       0.37500000       0.30844000       0.06250000 </v>
   <v>       0.00000000       0.50000000       0.23539000 </v>
   <v>       0.25000000       0.50000000       0.23539000 </v>
   <v>       0.00000000       0.00000000       0.11039000 </v>
   <v>       0.25000000       0.00000000       0.11039000 </v>
   <v>       0.12500000       0.19156000       0.18750000 </v>
   <v>       0.37500000       0.19156000       0.18750000 </v>
   <v>       0.12500000       0.69156000       0.06250000 </v>
   <v>       0.37500000       0.69156000       0.06250000 </v>
   <v>       0.99983307       0.50000000       0.38966546 </v>
   <v>       0.25013556       0.50000000       0.38963386 </v>
   <v>       0.00015426       0.00000000       0.26490926 </v>
   <v>       0.24968841       0.00000000       0.26482941 </v>
   <v>       0.12486451       0.80896642       0.43608892 </v>
   <v>       0.37593323       0.80912993       0.43768716 </v>
   <v>       0.12481715       0.30763770       0.31269691 </v>
   <v>       0.37495155       0.30757951       0.31248712 </v>
   <v>       0.00012725       0.50000000       0.48368250 </v>
   <v>       0.24992930       0.50000000       0.48367238 </v>
   <v>       0.99951917       0.00000000       0.36112862 </v>
   <v>       0.25033888       0.00000000       0.36117246 </v>
   <v>       0.12486451       0.19103358       0.43608892 </v>
   <v>       0.37593323       0.19087007       0.43768716 </v>
   <v>       0.12481715       0.69236230       0.31269691 </v>
   <v>       0.37495155       0.69242049       0.31248712 </v>
   <v>       0.24828980       0.00000000       0.51125699 </v>
   <v>       0.00174111       0.00000000       0.51116502 </v>
   <v>       0.62500000       0.50000000       0.18750000 </v>
   <v>       0.87500000       0.50000000       0.18750000 </v>
   <v>       0.62500000       0.00000000       0.06250000 </v>
   <v>       0.87500000       0.00000000       0.06250000 </v>
   <v>       0.50000000       0.50000000       0.06250000 </v>
   <v>       0.75000000       0.50000000       0.06250000 </v>
   <v>       0.50000000       0.00000000       0.18750000 </v>
   <v>       0.75000000       0.00000000       0.18750000 </v>
   <v>       0.62507773       0.50000000       0.43711872 </v>
   <v>       0.87483718       0.50000000       0.43824676 </v>
   <v>       0.62484352       0.00000000       0.31268569 </v>
   <v>       0.87516664       0.00000000       0.31269277 </v>
   <v>       0.49981304       0.50000000       0.31274043 </v>
   <v>       0.75007558       0.50000000       0.31269713 </v>
   <v>       0.50109214       0.00000000       0.44092879 </v>
   <v>       0.74924325       0.00000000       0.44073788 </v>
   <v>       0.50000000       0.50000000       0.13961000 </v>
   <v>       0.75000000       0.50000000       0.13961000 </v>
   <v>       0.50000000       0.00000000       0.01461000 </v>
   <v>       0.75000000       0.00000000       0.01461000 </v>
   <v>       0.62500000       0.80844000       0.18750000 </v>
   <v>       0.87500000       0.80844000       0.18750000 </v>
   <v>       0.62500000       0.30844000       0.06250000 </v>
   <v>       0.87500000       0.30844000       0.06250000 </v>
   <v>       0.50000000       0.50000000       0.23539000 </v>
   <v>       0.75000000       0.50000000       0.23539000 </v>
   <v>       0.50000000       0.00000000       0.11039000 </v>
   <v>       0.75000000       0.00000000       0.11039000 </v>
   <v>       0.62500000       0.19156000       0.18750000 </v>
   <v>       0.87500000       0.19156000       0.18750000 </v>
   <v>       0.62500000       0.69156000       0.06250000 </v>
   <v>       0.87500000       0.69156000       0.06250000 </v>
   <v>       0.49958716       0.50000000       0.38916592 </v>
   <v>       0.75051887       0.50000000       0.38915329 </v>
   <v>       0.49986712       0.00000000       0.26485663 </v>
   <v>       0.74996251       0.00000000       0.26474570 </v>
   <v>       0.62513987       0.80821680       0.43353555 </v>
   <v>       0.87454306       0.80908931       0.43750236 </v>
   <v>       0.62476446       0.30779040       0.31231698 </v>
   <v>       0.87522575       0.30768253       0.31236141 </v>
   <v>       0.50149451       0.50000000       0.48314824 </v>
   <v>       0.74868773       0.50000000       0.48319728 </v>
   <v>       0.49930877       0.00000000       0.36066782 </v>
   <v>       0.75055920       0.00000000       0.36050739 </v>
   <v>       0.62513987       0.19178320       0.43353555 </v>
   <v>       0.87454306       0.19091069       0.43750236 </v>
   <v>       0.62476446       0.69220960       0.31231698 </v>
   <v>       0.87522575       0.69231747       0.31236141 </v>
   <v>       0.73962255       0.00000000       0.50998440 </v>
   <v>       0.51117081       0.00000000       0.51016215 </v>
  </varray>
  <varray name="selective"  type="logical" >
   <v type="logical" >  F  F  F </v>
   <v type="logical" >  F  F  F </v>
   <v type="logical" >  F  F  F </v>
   <v type="logical" >  F  F  F </v>
   <v type="logical" >  F  F  F </v>
   <v type="logical" >  F  F  F </v>
   <v type="logical" >  F  F  F </v>
   <v type="logical" >  F  F  F </v>
   <v type="logical" >  T  T  T </v>
   <v type="logical" >  T  T  T </v>
   <v type="logical" >  T  T  T </v>
   <v type="logical" >  T  T  T </v>
   <v type="logical" >  T  T  T </v>
   <v type="logical" >  T  T  T </v>
   <v type="logical" >  T  T  T </v>
   <v type="logical" >  T  T  T </v>
   <v type="logical" >  F  F  F </v>
   <v type="logical" >  F  F  F </v>
   <v type="logical" >  F  F  F </v>
   <v type="logical" >  F  F  F </v>
   <v type="logical" >  F  F  F </v>
   <v type="logical" >  F  F  F </v>
   <v type="logical" >  F  F  F </v>
   <v type="logical" >  F  F  F </v>
   <v type="logical" >  F  F  F </v>
   <v type="logical" >  F  F  F </v>
   <v type="logical" >  F  F  F </v>
   <v type="logical" >  F  F  F </v>
   <v type="logical" >  F  F  F </v>
   <v type="logical" >  F  F  F </v>
   <v type="logical" >  F  F  F </v>
   <v type="logical" >  F  F  F </v>
   <v type="logical" >  T  T  T </v>
   <v type="logical" >  T  T  T </v>
   <v type="logical" >  T  T  T </v>
   <v type="logical" >  T  T  T </v>
   <v type="logical" >  T  T  T </v>
   <v type="logical" >  T  T  T </v>
   <v type="logical" >  T  T  T </v>
   <v type="logical" >  T  T  T </v>
   <v type="logical" >  T  T  T </v>
   <v type="logical" >  T  T  T </v>
   <v type="logical" >  T  T  T </v>
   <v type="logical" >  T  T  T </v>
   <v type="logical" >  T  T  T </v>
   <v type="logical" >  T  T  T </v>
   <v type="logical" >  T  T  T </v>
   <v type="logical" >  T  T  T </v>
   <v type="logical" >  T  T  T </v>
   <v type="logical" >  T  T  T </v>
   <v type="logical" >  F  F  F </v>
   <v type="logical" >  F  F  F </v>
   <v type="logical" >  F  F  F </v>
   <v type="logical" >  F  F  F </v>
   <v type="logical" >  F  F  F </v>
   <v type="logical" >  F  F  F </v>
   <v type="logical" >  F  F  F </v>
   <v type="logical" >  F  F  F </v>
   <v type="logical" >  T  T  T </v>
   <v type="logical" >  T  T  T </v>
   <v type="logical" >  T  T  T </v>
   <v type="logical" >  T  T  T </v>
   <v type="logical" >  T  T  T </v>
   <v type="logical" >  T  T  T </v>
   <v type="logical" >  T  T  T </v>
   <v type="logical" >  T  T  T </v>
   <v type="logical" >  F  F  F </v>
   <v type="logical" >  F  F  F </v>
   <v type="logical" >  F  F  F </v>
   <v type="logical" >  F  F  F </v>
   <v type="logical" >  F  F  F </v>
   <v type="logical" >  F  F  F </v>
   <v type="logical" >  F  F  F </v>
   <v type="logical" >  F  F  F </v>
   <v type="logical" >  F  F  F </v>
   <v type="logical" >  F  F  F </v>
   <v type="logical" >  F  F  F </v>
   <v type="logical" >  F  F  F </v>
   <v type="logical" >  F  F  F </v>
   <v type="logical" >  F  F  F </v>
   <v type="logical" >  F  F  F </v>
   <v type="logical" >  F  F  F </v>
   <v type="logical" >  T  T  T </v>
   <v type="logical" >  T  T  T </v>
   <v type="logical" >  T  T  T </v>
   <v type="logical" >  T  T  T </v>
   <v type="logical" >  T  T  T </v>
   <v type="logical" >  T  T  T </v>
   <v type="logical" >  T  T  T </v>
   <v type="logical" >  T  T  T </v>
   <v type="logical" >  T  T  T </v>
   <v type="logical" >  T  T  T </v>
   <v type="logical" >  T  T  T </v>
   <v type="logical" >  T  T  T </v>
   <v type="logical" >  T  T  T </v>
   <v type="logical" >  T  T  T </v>
   <v type="logical" >  T  T  T </v>
   <v type="logical" >  T  T  T </v>
   <v type="logical" >  T  T  T </v>
   <v type="logical" >  T  T  T </v>
  </varray>
  <nose>
   <v>      -3.00000000       0.00000000       0.00010000       0.00010000 </v>
  </nose>
 </structure>
 <calculation>
  <scstep>
   <time name="dav">   13.13   13.19</time>
   <time name="total">   13.24   13.30</time>
   <energy>
    <i name="alphaZ">   1826.57435200 </i>
    <i name="ewald"> 229990.59270688 </i>
    <i name="hartreedc">-276897.26420011 </i>
    <i name="XCdc">   1311.50163077 </i>
    <i name="pawpsdc">  41249.06120504 </i>
    <i name="pawaedc"> -40032.83491672 </i>
    <i name="eentropy">     -0.05682083 </i>
    <i name="bandstr">   3010.35370226 </i>
    <i name="atom">  47298.05697971 </i>
    <i name="e_fr_energy">   7755.98463900 </i>
    <i name="e_wo_entrp">   7756.04145982 </i>
    <i name="e_0_energy">   7756.01304941 </i>
   </energy>
  </scstep>
  <scstep>
   <time name="dav">   13.61   13.65</time>
   <time name="total">   13.61   13.66</time>
   <energy>
    <i name="e_fr_energy">    536.67613287 </i>
    <i name="e_wo_entrp">    536.72181927 </i>
    <i name="e_0_energy">    536.69897607 </i>
   </energy>
  </scstep>
  <scstep>
   <time name="dav">   15.69   15.74</time>
   <time name="total">   15.69   15.75</time>
   <energy>
    <i name="e_fr_energy">   -704.50177245 </i>
    <i name="e_wo_entrp">   -704.43478965 </i>
    <i name="e_0_energy">   -704.46828105 </i>
   </energy>
  </scstep>
  <scstep>
   <time name="dav">   15.79   15.84</time>
   <time name="total">   15.79   15.85</time>
   <energy>
    <i name="e_fr_energy">   -776.91788862 </i>
    <i name="e_wo_entrp">   -776.85118938 </i>
    <i name="e_0_energy">   -776.88453900 </i>
   </energy>
  </scstep>
  <scstep>
   <time name="dav">   15.81   15.85</time>
   <time name="total">   16.13   16.18</time>
   <energy>
    <i name="e_fr_energy">   -779.20789274 </i>
    <i name="e_wo_entrp">   -779.14109098 </i>
    <i name="e_0_energy">   -779.17449186 </i>
   </energy>
  </scstep>
  <scstep>
   <time name="diag">    1.80    1.81</time>
   <time name="diis">    5.01    5.02</time>
   <time name="orth">    0.56    0.56</time>
   <time name="total">    7.79    7.81</time>
   <energy>
    <i name="e_fr_energy">   -671.87944374 </i>
    <i name="e_wo_entrp">   -671.81611316 </i>
    <i name="e_0_energy">   -671.84777845 </i>
   </energy>
  </scstep>
  <scstep>
   <time name="diag">    1.80    1.81</time>
   <time name="diis">    5.22    5.23</time>
   <time name="orth">    0.56    0.56</time>
   <time name="total">    8.00    8.02</time>
   <energy>
    <i name="e_fr_energy">  -1108.38833258 </i>
    <i name="e_wo_entrp">  -1108.34692005 </i>
    <i name="e_0_energy">  -1108.36762632 </i>
   </energy>
  </scstep>
  <scstep>
   <time name="diag">    1.80    1.81</time>
   <time name="diis">    5.11    5.12</time>
   <time name="orth">    0.56    0.56</time>
   <time name="total">    7.90    7.93</time>
   <energy>
    <i name="e_fr_energy">   -922.64342953 </i>
    <i name="e_wo_entrp">   -922.58053479 </i>
    <i name="e_0_energy">   -922.61198216 </i>
   </energy>
  </scstep>
  <scstep>
   <time name="diag">    1.80    1.81</time>
   <time name="diis">    5.00    5.01</time>
   <time name="orth">    0.56    0.56</time>
   <time name="total">    7.78    7.80</time>
   <energy>
    <i name="e_fr_energy">   -844.73886603 </i>
    <i name="e_wo_entrp">   -844.69082708 </i>
    <i name="e_0_energy">   -844.71484655 </i>
   </energy>
  </scstep>
  <scstep>
   <time name="diag">    1.83    1.83</time>
   <time name="diis">    5.07    5.09</time>
   <time name="orth">    0.56    0.56</time>
   <time name="total">    7.88    7.90</time>
   <energy>
    <i name="e_fr_energy">   -822.32523936 </i>
    <i name="e_wo_entrp">   -822.28155065 </i>
    <i name="e_0_energy">   -822.30339500 </i>
   </energy>
  </scstep>
  <scstep>
   <time name="diag">    1.81    1.81</time>
   <time name="diis">    5.08    5.09</time>
   <time name="orth">    0.56    0.57</time>
   <time name="total">    7.87    7.89</time>
   <energy>
    <i name="e_fr_energy">   -679.35018812 </i>
    <i name="e_wo_entrp">   -679.30634543 </i>
    <i name="e_0_energy">   -679.32826677 </i>
   </energy>
  </scstep>
  <scstep>
   <time name="diag">    1.80    1.81</time>
   <time name="diis">    5.06    5.07</time>
   <time name="orth">    0.55    0.57</time>
   <time name="total">    7.83    7.87</time>
   <energy>
    <i name="e_fr_energy">   -612.67944832 </i>
    <i name="e_wo_entrp">   -612.61035679 </i>
    <i name="e_0_energy">   -612.64490256 </i>
   </energy>
  </scstep>
  <scstep>
   <time name="diag">    1.81    1.81</time>
   <time name="diis">    5.01    5.02</time>
   <time name="orth">    0.56    0.57</time>
   <time name="total">    7.81    7.83</time>
   <energy>
    <i name="e_fr_energy">   -601.29659469 </i>
    <i name="e_wo_entrp">   -601.21108390 </i>
    <i name="e_0_energy">   -601.25383930 </i>
   </energy>
  </scstep>
  <scstep>
   <time name="diag">    1.80    1.81</time>
   <time name="diis">    4.99    5.01</time>
   <time name="orth">    0.56    0.57</time>
   <time name="total">    7.78    7.80</time>
   <energy>
    <i name="e_fr_energy">   -607.64460947 </i>
    <i name="e_wo_entrp">   -607.58647117 </i>
    <i name="e_0_energy">   -607.61554032 </i>
   </energy>
  </scstep>
  <scstep>
   <time name="diag">    1.80    1.81</time>
   <time name="diis">    4.99    5.00</time>
   <time name="orth">    0.56    0.56</time>
   <time name="total">    7.77    7.80</time>
   <energy>
    <i name="e_fr_energy">   -607.86820427 </i>
    <i name="e_wo_entrp">   -607.77255437 </i>
    <i name="e_0_energy">   -607.82037932 </i>
   </energy>
  </scstep>
  <scstep>
   <time name="diag">    1.80    1.81</time>
   <time name="diis">    5.01    5.03</time>
   <time name="orth">    0.56    0.57</time>
   <time name="total">    7.80    7.83</time>
   <energy>
    <i name="e_fr_energy">   -612.34289837 </i>
    <i name="e_wo_entrp">   -612.27326761 </i>
    <i name="e_0_energy">   -612.30808299 </i>
   </energy>
  </scstep>
  <scstep>
   <time name="diag">    1.80    1.81</time>
   <time name="diis">    4.99    5.00</time>
   <time name="orth">    0.56    0.57</time>
   <time name="total">    7.78    7.80</time>
   <energy>
    <i name="e_fr_energy">   -618.49282102 </i>
    <i name="e_wo_entrp">   -618.41200986 </i>
    <i name="e_0_energy">   -618.45241544 </i>
   </energy>
  </scstep>
  <scstep>
   <time name="diag">    1.80    1.81</time>
   <time name="diis">    4.99    5.00</time>
   <time name="orth">    0.56    0.57</time>
   <time name="total">    7.78    7.80</time>
   <energy>
    <i name="e_fr_energy">   -625.83738932 </i>
    <i name="e_wo_entrp">   -625.76399982 </i>
    <i name="e_0_energy">   -625.80069457 </i>
   </energy>
  </scstep>
  <scstep>
   <time name="diag">    1.80    1.81</time>
   <time name="diis">    5.02    5.04</time>
   <time name="orth">    0.56    0.57</time>
   <time name="total">    7.81    7.83</time>
   <energy>
    <i name="e_fr_energy">   -630.99963020 </i>
    <i name="e_wo_entrp">   -630.92530644 </i>
    <i name="e_0_energy">   -630.96246832 </i>
   </energy>
  </scstep>
  <scstep>
   <time name="diag">    1.80    1.81</time>
   <time name="diis">    5.00    5.02</time>
   <time name="orth">    0.57    0.57</time>
   <time name="total">    7.79    7.82</time>
   <energy>
    <i name="e_fr_energy">   -632.05036147 </i>
    <i name="e_wo_entrp">   -631.97057453 </i>
    <i name="e_0_energy">   -632.01046800 </i>
   </energy>
  </scstep>
  <scstep>
   <time name="diag">    1.80    1.81</time>
   <time name="diis">    5.02    5.04</time>
   <time name="orth">    0.56    0.56</time>
   <time name="total">    7.81    7.83</time>
   <energy>
    <i name="e_fr_energy">   -633.49038890 </i>
    <i name="e_wo_entrp">   -633.41350856 </i>
    <i name="e_0_energy">   -633.45194873 </i>
   </energy>
  </scstep>
  <scstep>
   <time name="diag">    1.80    1.81</time>
   <time name="diis">    5.01    5.05</time>
   <time name="orth">    0.56    0.56</time>
   <time name="total">    7.80    7.84</time>
   <energy>
    <i name="e_fr_energy">   -634.51303251 </i>
    <i name="e_wo_entrp">   -634.45285593 </i>
    <i name="e_0_energy">   -634.48294422 </i>
   </energy>
  </scstep>
  <scstep>
   <time name="diag">    1.80    1.80</time>
   <time name="diis">    5.06    5.07</time>
   <time name="orth">    0.56    0.56</time>
   <time name="total">    7.84    7.86</time>
   <energy>
    <i name="e_fr_energy">   -634.46250855 </i>
    <i name="e_wo_entrp">   -634.39811951 </i>
    <i name="e_0_energy">   -634.43031403 </i>
   </energy>
  </scstep>
  <scstep>
   <time name="diag">    1.80    1.81</time>
   <time name="diis">    5.03    5.05</time>
   <time name="orth">    0.56    0.57</time>
   <time name="total">    7.82    7.85</time>
   <energy>
    <i name="e_fr_energy">   -634.23487711 </i>
    <i name="e_wo_entrp">   -634.16423771 </i>
    <i name="e_0_energy">   -634.19955741 </i>
   </energy>
  </scstep>
  <scstep>
   <time name="diag">    1.80    1.81</time>
   <time name="diis">    5.01    5.02</time>
   <time name="orth">    0.56    0.56</time>
   <time name="total">    7.79    7.82</time>
   <energy>
    <i name="e_fr_energy">   -634.30813383 </i>
    <i name="e_wo_entrp">   -634.23688883 </i>
    <i name="e_0_energy">   -634.27251133 </i>
   </energy>
  </scstep>
  <scstep>
   <time name="diag">    1.80    1.81</time>
   <time name="diis">    4.99    5.00</time>
   <time name="orth">    0.56    0.56</time>
   <time name="total">    7.78    7.80</time>
   <energy>
    <i name="e_fr_energy">   -634.38947505 </i>
    <i name="e_wo_entrp">   -634.32409170 </i>
    <i name="e_0_energy">   -634.35678338 </i>
   </energy>
  </scstep>
  <scstep>
   <time name="diag">    1.81    1.82</time>
   <time name="diis">    5.00    5.01</time>
   <time name="orth">    0.57    0.57</time>
   <time name="total">    7.81    7.83</time>
   <energy>
    <i name="e_fr_energy">   -634.92065105 </i>
    <i name="e_wo_entrp">   -634.85313370 </i>
    <i name="e_0_energy">   -634.88689238 </i>
   </energy>
  </scstep>
  <scstep>
   <time name="diag">    1.80    1.80</time>
   <time name="diis">    5.02    5.03</time>
   <time name="orth">    0.56    0.56</time>
   <time name="total">    7.81    7.83</time>
   <energy>
    <i name="e_fr_energy">   -635.36720551 </i>
    <i name="e_wo_entrp">   -635.30061206 </i>
    <i name="e_0_energy">   -635.33390878 </i>
   </energy>
  </scstep>
  <scstep>
   <time name="diag">    1.80    1.81</time>
   <time name="diis">    4.98    5.00</time>
   <time name="orth">    0.56    0.57</time>
   <time name="total">    7.77    7.80</time>
   <energy>
    <i name="e_fr_energy">   -635.96355174 </i>
    <i name="e_wo_entrp">   -635.89700659 </i>
    <i name="e_0_energy">   -635.93027916 </i>
   </energy>
  </scstep>
  <scstep>
   <time name="diag">    1.80    1.81</time>
   <time name="diis">    5.00    5.01</time>
   <time name="orth">    0.56    0.56</time>
   <time name="total">    7.79    7.81</time>
   <energy>
    <i name="e_fr_energy">   -636.37873364 </i>
    <i name="e_wo_entrp">   -636.30898488 </i>
    <i name="e_0_energy">   -636.34385926 </i>
   </energy>
  </scstep>
  <scstep>
   <time name="diag">    1.80    1.81</time>
   <time name="diis">    5.06    5.07</time>
   <time name="orth">    0.57    0.57</time>
   <time name="total">    7.85    7.88</time>
   <energy>
    <i name="e_fr_energy">   -636.97604167 </i>
    <i name="e_wo_entrp">   -636.90570525 </i>
    <i name="e_0_energy">   -636.94087346 </i>
   </energy>
  </scstep>
  <scstep>
   <time name="diag">    1.80    1.82</time>
   <time name="diis">    5.04    5.05</time>
   <time name="orth">    0.57    0.57</time>
   <time name="total">    7.83    7.88</time>
   <energy>
    <i name="e_fr_energy">   -637.25566215 </i>
    <i name="e_wo_entrp">   -637.18558641 </i>
    <i name="e_0_energy">   -637.22062428 </i>
   </energy>
  </scstep>
  <scstep>
   <time name="diag">    1.81    1.82</time>
   <time name="diis">    5.02    5.03</time>
   <time name="orth">    0.57    0.57</time>
   <time name="total">    7.83    7.85</time>
   <energy>
    <i name="e_fr_energy">   -637.35484654 </i>
    <i name="e_wo_entrp">   -637.28464152 </i>
    <i name="e_0_energy">   -637.31974403 </i>
   </energy>
  </scstep>
  <scstep>
   <time name="diag">    1.80    1.80</time>
   <time name="diis">    5.00    5.01</time>
   <time name="orth">    0.57    0.57</time>
   <time name="total">    7.79    7.82</time>
   <energy>
    <i name="e_fr_energy">   -637.45469902 </i>
    <i name="e_wo_entrp">   -637.38414804 </i>
    <i name="e_0_energy">   -637.41942353 </i>
   </energy>
  </scstep>
  <scstep>
   <time name="diag">    1.80    1.81</time>
   <time name="diis">    4.98    4.99</time>
   <time name="orth">    0.57    0.57</time>
   <time name="total">    7.78    7.81</time>
   <energy>
    <i name="e_fr_energy">   -637.53826207 </i>
    <i name="e_wo_entrp">   -637.46781540 </i>
    <i name="e_0_energy">   -637.50303874 </i>
   </energy>
  </scstep>
  <scstep>
   <time name="diag">    1.81    1.81</time>
   <time name="diis">    4.97    4.98</time>
   <time name="orth">    0.57    0.57</time>
   <time name="total">    7.79    7.81</time>
   <energy>
    <i name="e_fr_energy">   -637.57726792 </i>
    <i name="e_wo_entrp">   -637.50844131 </i>
    <i name="e_0_energy">   -637.54285462 </i>
   </energy>
  </scstep>
  <scstep>
   <time name="diag">    1.81    1.82</time>
   <time name="diis">    4.97    4.99</time>
   <time name="orth">    0.57    0.57</time>
   <time name="total">    7.78    7.81</time>
   <energy>
    <i name="e_fr_energy">   -637.55092944 </i>
    <i name="e_wo_entrp">   -637.48309681 </i>
    <i name="e_0_energy">   -637.51701312 </i>
   </energy>
  </scstep>
  <scstep>
   <time name="diag">    1.81    1.82</time>
   <time name="diis">    4.99    5.00</time>
   <time name="orth">    0.57    0.57</time>
   <time name="total">    7.80    7.82</time>
   <energy>
    <i name="e_fr_energy">   -637.51526306 </i>
    <i name="e_wo_entrp">   -637.44818207 </i>
    <i name="e_0_energy">   -637.48172256 </i>
   </energy>
  </scstep>
  <scstep>
   <time name="diag">    1.81    1.81</time>
   <time name="diis">    5.30    5.35</time>
   <time name="orth">    0.57    0.57</time>
   <time name="total">    8.12    8.17</time>
   <energy>
    <i name="e_fr_energy">   -637.49763349 </i>
    <i name="e_wo_entrp">   -637.43173507 </i>
    <i name="e_0_energy">   -637.46468428 </i>
   </energy>
  </scstep>
  <scstep>
   <time name="diag">    1.81    1.82</time>
   <time name="diis">    4.97    4.98</time>
   <time name="orth">    0.57    0.57</time>
   <time name="total">    7.78    7.81</time>
   <energy>
    <i name="e_fr_energy">   -637.46531563 </i>
    <i name="e_wo_entrp">   -637.40132993 </i>
    <i name="e_0_energy">   -637.43332278 </i>
   </energy>
  </scstep>
  <scstep>
   <time name="diag">    1.80    1.81</time>
   <time name="diis">    4.99    5.02</time>
   <time name="orth">    0.57    0.57</time>
   <time name="total">    7.79    7.83</time>
   <energy>
    <i name="e_fr_energy">   -637.43777904 </i>
    <i name="e_wo_entrp">   -637.37501962 </i>
    <i name="e_0_energy">   -637.40639933 </i>
   </energy>
  </scstep>
  <scstep>
   <time name="diag">    1.80    1.80</time>
   <time name="diis">    5.04    5.06</time>
   <time name="orth">    0.57    0.57</time>
   <time name="total">    7.84    7.87</time>
   <energy>
    <i name="e_fr_energy">   -637.45029417 </i>
    <i name="e_wo_entrp">   -637.38845344 </i>
    <i name="e_0_energy">   -637.41937381 </i>
   </energy>
  </scstep>
  <scstep>
   <time name="diag">    1.80    1.81</time>
   <time name="diis">    4.99    5.00</time>
   <time name="orth">    0.57    0.57</time>
   <time name="total">    7.80    7.82</time>
   <energy>
    <i name="e_fr_energy">   -637.46265333 </i>
    <i name="e_wo_entrp">   -637.40149332 </i>
    <i name="e_0_energy">   -637.43207332 </i>
   </energy>
  </scstep>
  <scstep>
   <time name="diag">    1.80    1.81</time>
   <time name="diis">    4.99    5.01</time>
   <time name="orth">    0.56    0.57</time>
   <time name="total">    7.80    7.82</time>
   <energy>
    <i name="e_fr_energy">   -637.47510091 </i>
    <i name="e_wo_entrp">   -637.41557064 </i>
    <i name="e_0_energy">   -637.44533578 </i>
   </energy>
  </scstep>
  <scstep>
   <time name="diag">    1.80    1.81</time>
   <time name="diis">    5.01    5.02</time>
   <time name="orth">    0.57    0.57</time>
   <time name="total">    7.81    7.83</time>
   <energy>
    <i name="e_fr_energy">   -637.50796780 </i>
    <i name="e_wo_entrp">   -637.44926628 </i>
    <i name="e_0_energy">   -637.47861704 </i>
   </energy>
  </scstep>
  <scstep>
   <time name="diag">    1.80    1.81</time>
   <time name="diis">    4.97    4.98</time>
   <time name="orth">    0.56    0.57</time>
   <time name="total">    7.77    7.79</time>
   <energy>
    <i name="e_fr_energy">   -637.55759557 </i>
    <i name="e_wo_entrp">   -637.49877481 </i>
    <i name="e_0_energy">   -637.52818519 </i>
   </energy>
  </scstep>
  <scstep>
   <time name="diag">    1.80    1.80</time>
   <time name="diis">    5.00    5.01</time>
   <time name="orth">    0.57    0.57</time>
   <time name="total">    7.80    7.82</time>
   <energy>
    <i name="e_fr_energy">   -637.60425791 </i>
    <i name="e_wo_entrp">   -637.54563051 </i>
    <i name="e_0_energy">   -637.57494421 </i>
   </energy>
  </scstep>
  <scstep>
   <time name="diag">    1.80    1.80</time>
   <time name="diis">    5.02    5.03</time>
   <time name="orth">    0.57    0.57</time>
   <time name="total">    7.82    7.85</time>
   <energy>
    <i name="e_fr_energy">   -637.67090185 </i>
    <i name="e_wo_entrp">   -637.61265015 </i>
    <i name="e_0_energy">   -637.64177600 </i>
   </energy>
  </scstep>
  <scstep>
   <time name="diag">    1.80    1.80</time>
   <time name="diis">    4.93    4.94</time>
   <time name="orth">    0.56    0.57</time>
   <time name="total">    7.73    7.75</time>
   <energy>
    <i name="e_fr_energy">   -637.72161415 </i>
    <i name="e_wo_entrp">   -637.66321234 </i>
    <i name="e_0_energy">   -637.69241325 </i>
   </energy>
  </scstep>
  <scstep>
   <time name="diag">    1.80    1.80</time>
   <time name="diis">    4.97    4.98</time>
   <time name="orth">    0.56    0.57</time>
   <time name="total">    7.77    7.79</time>
   <energy>
    <i name="e_fr_energy">   -637.79215437 </i>
    <i name="e_wo_entrp">   -637.73348984 </i>
    <i name="e_0_energy">   -637.76282210 </i>
   </energy>
  </scstep>
  <scstep>
   <time name="diag">    1.80    1.81</time>
   <time name="diis">    4.95    4.96</time>
   <time name="orth">    0.56    0.57</time>
   <time name="total">    7.75    7.78</time>
   <energy>
    <i name="e_fr_energy">   -637.85886556 </i>
    <i name="e_wo_entrp">   -637.80062313 </i>
    <i name="e_0_energy">   -637.82974435 </i>
   </energy>
  </scstep>
  <scstep>
   <time name="diag">    1.80    1.80</time>
   <time name="diis">    4.67    4.68</time>
   <time name="orth">    0.56    0.57</time>
   <time name="total">    7.47    7.49</time>
   <energy>
    <i name="e_fr_energy">   -637.88033062 </i>
    <i name="e_wo_entrp">   -637.82222372 </i>
    <i name="e_0_energy">   -637.85127717 </i>
   </energy>
  </scstep>
  <scstep>
   <time name="diag">    1.80    1.80</time>
   <time name="diis">    4.53    4.54</time>
   <time name="orth">    0.56    0.57</time>
   <time name="total">    7.32    7.34</time>
   <energy>
    <i name="e_fr_energy">   -637.90511915 </i>
    <i name="e_wo_entrp">   -637.84707198 </i>
    <i name="e_0_energy">   -637.87609557 </i>
   </energy>
  </scstep>
  <scstep>
   <time name="diag">    1.80    1.80</time>
   <time name="diis">    4.03    4.04</time>
   <time name="orth">    0.56    0.57</time>
   <time name="total">    6.83    6.85</time>
   <energy>
    <i name="e_fr_energy">   -637.91944963 </i>
    <i name="e_wo_entrp">   -637.86134331 </i>
    <i name="e_0_energy">   -637.89039647 </i>
   </energy>
  </scstep>
  <scstep>
   <time name="diag">    1.80    1.80</time>
   <time name="diis">    3.63    3.64</time>
   <time name="orth">    0.57    0.57</time>
   <time name="total">    6.43    6.45</time>
   <energy>
    <i name="e_fr_energy">   -637.92735958 </i>
    <i name="e_wo_entrp">   -637.86923769 </i>
    <i name="e_0_energy">   -637.89829863 </i>
   </energy>
  </scstep>
  <scstep>
   <time name="diag">    1.80    1.80</time>
   <time name="diis">    3.31    3.32</time>
   <time name="orth">    0.57    0.57</time>
   <time name="total">    6.10    6.12</time>
   <energy>
    <i name="e_fr_energy">   -637.92988135 </i>
    <i name="e_wo_entrp">   -637.87177219 </i>
    <i name="e_0_energy">   -637.90082677 </i>
   </energy>
  </scstep>
  <scstep>
   <time name="diag">    1.80    1.80</time>
   <time name="diis">    3.22    3.23</time>
   <time name="orth">    0.56    0.57</time>
   <time name="total">    6.01    6.04</time>
   <energy>
    <i name="e_fr_energy">   -637.93427655 </i>
    <i name="e_wo_entrp">   -637.87616609 </i>
    <i name="e_0_energy">   -637.90522132 </i>
   </energy>
  </scstep>
  <scstep>
   <time name="diag">    1.80    1.80</time>
   <time name="diis">    3.29    3.30</time>
   <time name="orth">    0.56    0.57</time>
   <time name="total">    6.09    6.11</time>
   <energy>
    <i name="e_fr_energy">   -637.93830070 </i>
    <i name="e_wo_entrp">   -637.88018809 </i>
    <i name="e_0_energy">   -637.90924440 </i>
   </energy>
  </scstep>
  <scstep>
   <time name="diag">    1.80    1.80</time>
   <time name="diis">    3.34    3.35</time>
   <time name="orth">    0.56    0.57</time>
   <time name="total">    6.14    6.16</time>
   <energy>
    <i name="e_fr_energy">   -637.94169257 </i>
    <i name="e_wo_entrp">   -637.88358371 </i>
    <i name="e_0_energy">   -637.91263814 </i>
   </energy>
  </scstep>
  <scstep>
   <time name="diag">    1.80    1.80</time>
   <time name="diis">    3.22    3.23</time>
   <time name="orth">    0.56    0.57</time>
   <time name="total">    5.68    5.70</time>
   <energy>
    <i name="alphaZ">   1826.57435200 </i>
    <i name="ewald"> 229990.59270688 </i>
    <i name="hartreedc">-276902.69029105 </i>
    <i name="XCdc">   1352.95758630 </i>
    <i name="pawpsdc">  62437.17425257 </i>
    <i name="pawaedc"> -61335.53145826 </i>
    <i name="eentropy">     -0.05809892 </i>
    <i name="bandstr">  -5305.01960593 </i>
    <i name="atom">  47298.05697971 </i>
    <i name="e_fr_energy">   -637.94357670 </i>
    <i name="e_wo_entrp">   -637.88547778 </i>
    <i name="e_0_energy">   -637.91452724 </i>
   </energy>
  </scstep>
  <structure>
   <crystal>
    <varray name="basis" >
     <v>      12.80853200       0.00000000       0.00000000 </v>
     <v>       0.00000000       6.47024300       0.00000000 </v>
     <v>       0.00000000       0.00000000      25.88097200 </v>
    </varray>
    <i name="volume">   2144.86781344 </i>
    <varray name="rec_basis" >
     <v>       0.07807296       0.00000000       0.00000000 </v>
     <v>       0.00000000       0.15455370       0.00000000 </v>
     <v>       0.00000000       0.00000000       0.03863843 </v>
    </varray>
   </crystal>
   <varray name="positions" >
    <v>       0.12500000       0.50000000       0.18750000 </v>
    <v>       0.37500000       0.50000000       0.18750000 </v>
    <v>       0.12500000       0.00000000       0.06250000 </v>
    <v>       0.37500000       0.00000000       0.06250000 </v>
    <v>       0.00000000       0.50000000       0.06250000 </v>
    <v>       0.25000000       0.50000000       0.06250000 </v>
    <v>       0.00000000       0.00000000       0.18750000 </v>
    <v>       0.25000000       0.00000000       0.18750000 </v>
    <v>       0.12499015       0.50000000       0.43806198 </v>
    <v>       0.37530277       0.50000000       0.43824627 </v>
    <v>       0.12490588       0.00000000       0.31304178 </v>
    <v>       0.37475310       0.00000000       0.31277418 </v>
    <v>       0.00001392       0.50000000       0.31295959 </v>
    <v>       0.24992868       0.50000000       0.31298735 </v>
    <v>       0.99989434       0.00000000       0.44178380 </v>
    <v>       0.25018733       0.00000000       0.44185293 </v>
    <v>       0.00000000       0.50000000       0.13961000 </v>
    <v>       0.25000000       0.50000000       0.13961000 </v>
    <v>       0.00000000       0.00000000       0.01461000 </v>
    <v>       0.25000000       0.00000000       0.01461000 </v>
    <v>       0.12500000       0.80844000       0.18750000 </v>
    <v>       0.37500000       0.80844000       0.18750000 </v>
    <v>       0.12500000       0.30844000       0.06250000 </v>
    <v>       0.37500000       0.30844000       0.06250000 </v>
    <v>       0.00000000       0.50000000       0.23539000 </v>
    <v>       0.25000000       0.50000000       0.23539000 </v>
    <v>       0.00000000       0.00000000       0.11039000 </v>
    <v>       0.25000000       0.00000000       0.11039000 </v>
    <v>       0.12500000       0.19156000       0.18750000 </v>
    <v>       0.37500000       0.19156000       0.18750000 </v>
    <v>       0.12500000       0.69156000       0.06250000 </v>
    <v>       0.37500000       0.69156000       0.06250000 </v>
    <v>       0.99983307       0.50000000       0.38966546 </v>
    <v>       0.25013556       0.50000000       0.38963386 </v>
    <v>       0.00015426       0.00000000       0.26490926 </v>
    <v>       0.24968841       0.00000000       0.26482941 </v>
    <v>       0.12486451       0.80896642       0.43608892 </v>
    <v>       0.37593323       0.80912993       0.43768716 </v>
    <v>       0.12481715       0.30763770       0.31269691 </v>
    <v>       0.37495155       0.30757951       0.31248712 </v>
    <v>       0.00012725       0.50000000       0.48368250 </v>
    <v>       0.24992930       0.50000000       0.48367238 </v>
    <v>       0.99951917       0.00000000       0.36112862 </v>
    <v>       0.25033888       0.00000000       0.36117246 </v>
    <v>       0.12486451       0.19103358       0.43608892 </v>
    <v>       0.37593323       0.19087007       0.43768716 </v>
    <v>       0.12481715       0.69236230       0.31269691 </v>
    <v>       0.37495155       0.69242049       0.31248712 </v>
    <v>       0.24828980       0.00000000       0.51125699 </v>
    <v>       0.00174111       0.00000000       0.51116502 </v>
    <v>       0.62500000       0.50000000       0.18750000 </v>
    <v>       0.87500000       0.50000000       0.18750000 </v>
    <v>       0.62500000       0.00000000       0.06250000 </v>
    <v>       0.87500000       0.00000000       0.06250000 </v>
    <v>       0.50000000       0.50000000       0.06250000 </v>
    <v>       0.75000000       0.50000000       0.06250000 </v>
    <v>       0.50000000       0.00000000       0.18750000 </v>
    <v>       0.75000000       0.00000000       0.18750000 </v>
    <v>       0.62507773       0.50000000       0.43711872 </v>
    <v>       0.87483718       0.50000000       0.43824676 </v>
    <v>       0.62484352       0.00000000       0.31268569 </v>
    <v>       0.87516664       0.00000000       0.31269277 </v>
    <v>       0.49981304       0.50000000       0.31274043 </v>
    <v>       0.75007558       0.50000000       0.31269713 </v>
    <v>       0.50109214       0.00000000       0.44092879 </v>
    <v>       0.74924325       0.00000000       0.44073788 </v>
    <v>       0.50000000       0.50000000       0.13961000 </v>
    <v>       0.75000000       0.50000000       0.13961000 </v>
    <v>       0.50000000       0.00000000       0.01461000 </v>
    <v>       0.75000000       0.00000000       0.01461000 </v>
    <v>       0.62500000       0.80844000       0.18750000 </v>
    <v>       0.87500000       0.80844000       0.18750000 </v>
    <v>       0.62500000       0.30844000       0.06250000 </v>
    <v>       0.87500000       0.30844000       0.06250000 </v>
    <v>       0.50000000       0.50000000       0.23539000 </v>
    <v>       0.75000000       0.50000000       0.23539000 </v>
    <v>       0.50000000       0.00000000       0.11039000 </v>
    <v>       0.75000000       0.00000000       0.11039000 </v>
    <v>       0.62500000       0.19156000       0.18750000 </v>
    <v>       0.87500000       0.19156000       0.18750000 </v>
    <v>       0.62500000       0.69156000       0.06250000 </v>
    <v>       0.87500000       0.69156000       0.06250000 </v>
    <v>       0.49958716       0.50000000       0.38916592 </v>
    <v>       0.75051887       0.50000000       0.38915329 </v>
    <v>       0.49986712       0.00000000       0.26485663 </v>
    <v>       0.74996251       0.00000000       0.26474570 </v>
    <v>       0.62513987       0.80821680       0.43353555 </v>
    <v>       0.87454306       0.80908931       0.43750236 </v>
    <v>       0.62476446       0.30779040       0.31231698 </v>
    <v>       0.87522575       0.30768253       0.31236141 </v>
    <v>       0.50149451       0.50000000       0.48314824 </v>
    <v>       0.74868773       0.50000000       0.48319728 </v>
    <v>       0.49930877       0.00000000       0.36066782 </v>
    <v>       0.75055920       0.00000000       0.36050739 </v>
    <v>       0.62513987       0.19178320       0.43353555 </v>
    <v>       0.87454306       0.19091069       0.43750236 </v>
    <v>       0.62476446       0.69220960       0.31231698 </v>
    <v>       0.87522575       0.69231747       0.31236141 </v>
    <v>       0.73962255       0.00000000       0.50998440 </v>
    <v>       0.51117081       0.00000000       0.51016215 </v>
   </varray>
  </structure>
  <varray name="forces" >
   <v>      -0.00988333       0.00000000      -0.31579274 </v>
   <v>       0.00850685       0.00000000      -0.31688422 </v>
   <v>      -0.01264114       0.00000000      -0.95507375 </v>
   <v>       0.00820332       0.00000000      -0.95461923 </v>
   <v>      -0.00220597       0.00000000       1.56974655 </v>
   <v>      -0.00074671       0.00000000       1.58155567 </v>
   <v>       0.02229306       0.00000000      -0.08008893 </v>
   <v>      -0.03171031       0.00000000      -0.09537934 </v>
   <v>      -0.00042532       0.00000000       0.00185577 </v>
   <v>      -0.00391330       0.00000000      -0.00258143 </v>
   <v>      -0.00122586       0.00000000      -0.00001528 </v>
   <v>       0.00270915       0.00000000      -0.00045956 </v>
   <v>      -0.00044397       0.00000000      -0.00146557 </v>
   <v>      -0.00086403       0.00000000      -0.00458770 </v>
   <v>       0.00827737       0.00000000       0.00719113 </v>
   <v>      -0.00340441       0.00000000      -0.00558013 </v>
   <v>      -0.00219501       0.00000000      -0.10284782 </v>
   <v>      -0.00282960       0.00000000      -0.10741973 </v>
   <v>      -0.00183098       0.00000000       0.83221906 </v>
   <v>      -0.00060639       0.00000000       0.82306828 </v>
   <v>      -0.05565259      -0.02814682      -0.04073544 </v>
   <v>       0.05080347      -0.02699673      -0.03645274 </v>
   <v>      -0.05517453      -0.07503049      -0.67146562 </v>
   <v>       0.05172471      -0.07491432      -0.67172293 </v>
   <v>       0.01156407       0.00000000       0.32247104 </v>
   <v>      -0.01491428       0.00000000       0.33675095 </v>
   <v>      -0.00745248       0.00000000       0.19132931 </v>
   <v>       0.00700282       0.00000000       0.19469877 </v>
   <v>      -0.05565259       0.02814682      -0.04073544 </v>
   <v>       0.05080347       0.02699673      -0.03645274 </v>
   <v>      -0.05517453       0.07503049      -0.67146562 </v>
   <v>       0.05172471       0.07491432      -0.67172293 </v>
   <v>       0.01985354       0.00000000      -0.00687139 </v>
   <v>      -0.00515634       0.00000000      -0.00505469 </v>
   <v>      -0.00270487       0.00000000      -0.00348876 </v>
   <v>       0.00262098       0.00000000      -0.00411667 </v>
   <v>       0.00364262       0.00157746       0.00387419 </v>
   <v>      -0.01928300      -0.01100537      -0.03034751 </v>
   <v>      -0.00102842      -0.00064269      -0.00532986 </v>
   <v>      -0.00090465       0.00047891      -0.00282139 </v>
   <v>       0.00322072       0.00000000      -0.00133821 </v>
   <v>       0.00078762       0.00000000      -0.00631266 </v>
   <v>       0.04965013       0.00000000      -0.00634009 </v>
   <v>      -0.01216426       0.00000000       0.00264737 </v>
   <v>       0.00364262      -0.00157746       0.00387419 </v>
   <v>      -0.01928300       0.01100537      -0.03034751 </v>
   <v>      -0.00102842       0.00064269      -0.00532986 </v>
   <v>      -0.00090465      -0.00047891      -0.00282139 </v>
   <v>      -0.01021567       0.00000000      -0.00989166 </v>
   <v>       0.00250026       0.00000000      -0.01210594 </v>
   <v>      -0.01129271       0.00000000      -0.32545789 </v>
   <v>       0.01128523       0.00000000      -0.31645639 </v>
   <v>      -0.01222984       0.00000000      -0.95512994 </v>
   <v>       0.00879646       0.00000000      -0.95468192 </v>
   <v>      -0.00169892       0.00000000       1.56821980 </v>
   <v>      -0.00156403       0.00000000       1.57990329 </v>
   <v>      -0.00112373       0.00000000      -0.09886510 </v>
   <v>      -0.01151180       0.00000000      -0.12327408 </v>
   <v>       0.00385316       0.00000000       0.02371052 </v>
   <v>       0.00409577       0.00000000      -0.00324167 </v>
   <v>       0.00421386       0.00000000      -0.00055398 </v>
   <v>      -0.00632707       0.00000000       0.00099542 </v>
   <v>       0.00316035       0.00000000       0.00196932 </v>
   <v>      -0.00379693       0.00000000       0.00257458 </v>
   <v>      -0.01171206       0.00000000       0.00803611 </v>
   <v>       0.02793373       0.00000000       0.01062932 </v>
   <v>      -0.00390882       0.00000000      -0.10477792 </v>
   <v>      -0.00007398       0.00000000      -0.10910337 </v>
   <v>      -0.00067077       0.00000000       0.83141707 </v>
   <v>      -0.00217394       0.00000000       0.82204150 </v>
   <v>      -0.05571652      -0.02574771      -0.03884675 </v>
   <v>       0.05229355      -0.02652591      -0.03712648 </v>
   <v>      -0.05493821      -0.07436541      -0.67116295 </v>
   <v>       0.05203185      -0.07470971      -0.67157309 </v>
   <v>      -0.01053559       0.00000000       0.25637616 </v>
   <v>      -0.00673852       0.00000000       0.25160955 </v>
   <v>      -0.00296883       0.00000000       0.18615511 </v>
   <v>       0.00264912       0.00000000       0.18733978 </v>
   <v>      -0.05571652       0.02574771      -0.03884675 </v>
   <v>       0.05229355       0.02652591      -0.03712648 </v>
   <v>      -0.05493821       0.07436541      -0.67116295 </v>
   <v>       0.05203185       0.07470971      -0.67157309 </v>
   <v>       0.00141291       0.00000000       0.00578833 </v>
   <v>      -0.00204354       0.00000000       0.00425752 </v>
   <v>       0.00576431       0.00000000      -0.00756191 </v>
   <v>       0.00123994       0.00000000      -0.00083654 </v>
   <v>       0.00962262       0.00674636       0.09276739 </v>
   <v>       0.02410553       0.00001801      -0.04237879 </v>
   <v>      -0.00130510      -0.00541203       0.00282475 </v>
   <v>      -0.00246856       0.00184163      -0.00130560 </v>
   <v>      -0.02298146       0.00000000       0.00280844 </v>
   <v>       0.01976334       0.00000000       0.00062364 </v>
   <v>       0.01134360       0.00000000      -0.01295796 </v>
   <v>      -0.01194382       0.00000000      -0.00554971 </v>
   <v>       0.00962262      -0.00674636       0.09276739 </v>
   <v>       0.02410553      -0.00001801      -0.04237879 </v>
   <v>      -0.00130510       0.00541203       0.00282475 </v>
   <v>      -0.00246856      -0.00184163      -0.00130560 </v>
   <v>       0.24748705       0.00000000       0.03057103 </v>
   <v>      -0.24286361       0.00000000       0.02180911 </v>
  </varray>
  <varray name="stress" >
   <v>     -16.03480898       0.00000000      -0.11177675 </v>
   <v>       0.00000000      -5.24469862       0.00000000 </v>
   <v>      -0.11177674       0.00000000      -4.64036543 </v>
  </varray>
  <energy>
   <i name="e_fr_energy">   -637.94357670 </i>
   <i name="e_wo_entrp">   -637.91452724 </i>
[...]
       <r>   -5.1408    1.0000 </r>
       <r>   -5.0703    1.0000 </r>
       <r>   -5.0662    1.0000 </r>
       <r>   -5.0635    1.0000 </r>
       <r>   -5.0464    1.0000 </r>
       <r>   -4.9677    1.0000 </r>
       <r>   -4.9668    1.0000 </r>
       <r>   -4.9168    1.0000 </r>
       <r>   -4.8812    1.0000 </r>
       <r>   -4.8722    1.0000 </r>
       <r>   -4.8670    1.0000 </r>
       <r>   -4.8522    1.0000 </r>
       <r>   -4.8298    1.0000 </r>
       <r>   -4.7891    1.0000 </r>
       <r>   -4.7837    1.0000 </r>
       <r>   -4.7648    1.0000 </r>
       <r>   -4.6133    1.0000 </r>
       <r>   -4.5799    1.0000 </r>
       <r>   -4.5711    1.0000 </r>
       <r>   -4.5160    1.0000 </r>
       <r>   -4.4785    1.0000 </r>
       <r>   -4.3842    1.0000 </r>
       <r>   -4.3122    1.0000 </r>
       <r>   -4.2295    1.0000 </r>
       <r>   -4.2168    1.0000 </r>
       <r>   -4.2120    1.0000 </r>
       <r>   -4.1979    1.0000 </r>
       <r>   -4.1090    1.0000 </r>
       <r>   -4.1046    1.0000 </r>
       <r>   -4.0888    1.0000 </r>
       <r>   -4.0841    1.0000 </r>
       <r>   -4.0145    1.0000 </r>
       <r>   -3.9679    1.0000 </r>
       <r>   -3.9653    1.0000 </r>
       <r>   -3.9552    1.0000 </r>
       <r>   -3.9398    1.0000 </r>
       <r>   -3.8845    1.0000 </r>
       <r>   -3.8741    1.0000 </r>
       <r>   -3.8486    1.0000 </r>
       <r>   -3.8160    1.0000 </r>
       <r>   -3.7918    1.0000 </r>
       <r>   -3.7792    1.0000 </r>
       <r>   -3.7503    1.0000 </r>
       <r>   -3.7171    1.0000 </r>
       <r>   -3.6943    1.0000 </r>
       <r>   -3.6701    1.0000 </r>
       <r>   -3.5516    1.0000 </r>
       <r>   -3.5412    1.0000 </r>
       <r>   -3.5373    1.0000 </r>
       <r>   -3.4885    1.0000 </r>
       <r>   -3.4505    1.0000 </r>
       <r>   -3.4427    1.0000 </r>
       <r>   -3.4276    1.0000 </r>
       <r>   -3.3546    1.0000 </r>
       <r>   -3.3323    1.0000 </r>
       <r>   -3.2823    1.0000 </r>
       <r>   -3.2749    1.0000 </r>
       <r>   -3.2076    1.0000 </r>
       <r>   -3.1698    1.0000 </r>
       <r>   -3.1681    1.0000 </r>
       <r>   -3.1481    1.0000 </r>
       <r>   -3.1334    1.0000 </r>
       <r>   -3.0790    1.0000 </r>
       <r>   -3.0423    1.0000 </r>
       <r>   -3.0004    1.0000 </r>
       <r>   -2.9632    1.0000 </r>
       <r>   -2.8992    1.0000 </r>
       <r>   -2.8848    1.0000 </r>
       <r>   -2.7511    1.0000 </r>
       <r>   -2.6918    1.0000 </r>
       <r>   -2.6457    1.0000 </r>
       <r>   -2.5504    1.0000 </r>
       <r>   -2.5061    1.0000 </r>
       <r>   -2.4906    1.0000 </r>
       <r>   -2.4328    1.0000 </r>
       <r>   -2.4306    1.0000 </r>
       <r>   -2.2897    1.0000 </r>
       <r>   -2.2777    1.0000 </r>
       <r>   -2.2491    1.0000 </r>
       <r>   -2.2455    1.0000 </r>
       <r>   -2.1915    1.0000 </r>
       <r>   -2.1774    1.0000 </r>
       <r>   -2.1755    1.0000 </r>
       <r>   -2.1692    1.0000 </r>
       <r>   -2.1481    1.0000 </r>
       <r>   -2.1331    1.0000 </r>
       <r>   -2.1264    1.0000 </r>
       <r>   -2.1049    1.0000 </r>
       <r>   -2.0857    1.0000 </r>
       <r>   -2.0596    1.0000 </r>
       <r>   -2.0588    1.0000 </r>
       <r>   -2.0158    1.0000 </r>
       <r>   -1.9877    1.0000 </r>
       <r>   -1.9792    1.0000 </r>
       <r>   -1.9653    1.0000 </r>
       <r>   -1.9641    1.0000 </r>
       <r>   -1.9472    1.0000 </r>
       <r>   -1.9162    1.0000 </r>
       <r>   -1.9130    1.0000 </r>
       <r>   -1.8356    1.0000 </r>
       <r>   -1.8075    1.0000 </r>
       <r>   -1.7996    1.0000 </r>
       <r>   -1.7741    1.0000 </r>
       <r>   -1.7528    1.0000 </r>
       <r>   -1.7365    1.0000 </r>
       <r>   -1.7272    1.0000 </r>
       <r>   -1.7251    1.0000 </r>
       <r>   -1.7242    1.0000 </r>
       <r>   -1.6971    1.0000 </r>
       <r>   -1.6812    1.0000 </r>
       <r>   -1.6719    1.0000 </r>
       <r>   -1.6536    1.0000 </r>
       <r>   -1.6439    1.0000 </r>
       <r>   -1.5569    1.0000 </r>
       <r>   -1.5553    1.0000 </r>
       <r>   -1.5469    1.0000 </r>
       <r>   -1.5413    1.0000 </r>
       <r>   -1.5060    1.0000 </r>
       <r>   -1.4882    1.0000 </r>
       <r>   -1.4775    1.0000 </r>
       <r>   -1.4688    1.0000 </r>
       <r>   -1.4618    1.0000 </r>
       <r>   -1.4048    1.0000 </r>
       <r>   -1.3840    1.0000 </r>
       <r>   -1.2734    1.0000 </r>
       <r>   -1.2282    1.0000 </r>
       <r>   -1.2051    1.0000 </r>
       <r>   -1.1484    1.0000 </r>
       <r>   -1.1249    1.0000 </r>
       <r>   -1.0708    1.0000 </r>
       <r>   -1.0105    1.0000 </r>
       <r>   -1.0096    1.0000 </r>
       <r>   -0.9729    1.0000 </r>
       <r>   -0.9677    1.0000 </r>
       <r>   -0.8978    1.0000 </r>
       <r>   -0.8082    1.0000 </r>
       <r>   -0.7837    1.0000 </r>
       <r>   -0.7121    1.0000 </r>
       <r>   -0.6661    1.0000 </r>
       <r>   -0.6475    1.0000 </r>
       <r>   -0.6232    1.0000 </r>
       <r>   -0.6039    1.0000 </r>
       <r>   -0.5748    1.0000 </r>
       <r>   -0.5055    0.9977 </r>
       <r>   -0.4742    0.9740 </r>
       <r>   -0.3775    0.2149 </r>
       <r>   -0.3753    0.1971 </r>
       <r>   -0.3716    0.1693 </r>
       <r>   -0.2981    0.0012 </r>
       <r>   -0.2897    0.0005 </r>
       <r>   -0.2825    0.0003 </r>
       <r>   -0.2606    0.0000 </r>
       <r>   -0.2438    0.0000 </r>
       <r>   -0.1569    0.0000 </r>
       <r>   -0.1256    0.0000 </r>
       <r>   -0.1179    0.0000 </r>
       <r>   -0.0568    0.0000 </r>
       <r>   -0.0541    0.0000 </r>
       <r>   -0.0426    0.0000 </r>
       <r>    0.0242    0.0000 </r>
       <r>    0.0552    0.0000 </r>
       <r>    0.1516    0.0000 </r>
       <r>    0.1900    0.0000 </r>
       <r>    0.2408    0.0000 </r>
       <r>    0.2554    0.0000 </r>
       <r>    0.2607    0.0000 </r>
       <r>    0.2649    0.0000 </r>
       <r>    0.3371    0.0000 </r>
       <r>    0.3504    0.0000 </r>
       <r>    0.3749    0.0000 </r>
       <r>    0.4046    0.0000 </r>
       <r>    0.4445    0.0000 </r>
       <r>    0.4726    0.0000 </r>
       <r>    0.7196    0.0000 </r>
       <r>    0.7389    0.0000 </r>
       <r>    0.7653    0.0000 </r>
       <r>    0.9534    0.0000 </r>
       <r>    1.0375    0.0000 </r>
       <r>    1.0672    0.0000 </r>
       <r>    1.0786    0.0000 </r>
       <r>    1.0876    0.0000 </r>
       <r>    1.1866    0.0000 </r>
       <r>    1.2571    0.0000 </r>
       <r>    1.3811    0.0000 </r>
       <r>    1.4324    0.0000 </r>
       <r>    1.5963    0.0000 </r>
       <r>    1.7200    0.0000 </r>
       <r>    1.9479    0.0000 </r>
       <r>    1.9969    0.0000 </r>
       <r>    2.0498    0.0000 </r>
       <r>    2.1057    0.0000 </r>
       <r>    2.1435    0.0000 </r>
       <r>    2.1505    0.0000 </r>
       <r>    2.1834    0.0000 </r>
       <r>    2.1879    0.0000 </r>
       <r>    2.2223    0.0000 </r>
       <r>    2.3237    0.0000 </r>
       <r>    2.4244    0.0000 </r>
       <r>    2.5611    0.0000 </r>
       <r>    2.5709    0.0000 </r>
       <r>    2.7334    0.0000 </r>
       <r>    2.7349    0.0000 </r>
       <r>    2.8199    0.0000 </r>
       <r>    2.8702    0.0000 </r>
       <r>    2.8722    0.0000 </r>
       <r>    2.8990    0.0000 </r>
       <r>    2.9750    0.0000 </r>
       <r>    3.0154    0.0000 </r>
       <r>    3.0735    0.0000 </r>
       <r>    3.0834    0.0000 </r>
       <r>    3.1379    0.0000 </r>
       <r>    3.1436    0.0000 </r>
       <r>    3.1824    0.0000 </r>
       <r>    3.1883    0.0000 </r>
       <r>    3.2158    0.0000 </r>
       <r>    3.3075    0.0000 </r>
       <r>    3.3171    0.0000 </r>
       <r>    3.3756    0.0000 </r>
       <r>    3.4540    0.0000 </r>
       <r>    3.5001    0.0000 </r>
       <r>    3.5718    0.0000 </r>
       <r>    3.5945    0.0000 </r>
       <r>    3.6102    0.0000 </r>
       <r>    3.6140    0.0000 </r>
       <r>    3.6769    0.0000 </r>
       <r>    3.6916    0.0000 </r>
       <r>    3.6963    0.0000 </r>
       <r>    3.7080    0.0000 </r>
       <r>    3.7183    0.0000 </r>
       <r>    3.8732    0.0000 </r>
       <r>    3.8869    0.0000 </r>
       <r>    4.0967    0.0000 </r>
       <r>    4.1771    0.0000 </r>
       <r>    4.5010    0.0000 </r>
       <r>    4.7658    0.0000 </r>
       <r>    5.2555    0.0000 </r>
       <r>    5.7389    0.0000 </r>
       <r>    5.7619    0.0000 </r>
       <r>    6.0292    0.0000 </r>
       <r>    6.2379    0.0000 </r>
       <r>    6.3304    0.0000 </r>
       <r>    6.4549    0.0000 </r>
       <r>    6.5391    0.0000 </r>
       <r>    6.5814    0.0000 </r>
       <r>    6.8508    0.0000 </r>
       <r>    6.9569    0.0000 </r>
       <r>    7.0157    0.0000 </r>
       <r>    7.2017    0.0000 </r>
       <r>    7.3115    0.0000 </r>
      </set>
     </set>
    </set>
   </array>
  </eigenvalues>
  <separator name="orbital magnetization" >
   <v name="MAGDIPOLOUT">      0.00000000      0.00000000      0.00000000</v>
  </separator>
 </calculation>
 <structure name="finalpos" >
  <crystal>
   <varray name="basis" >
    <v>      12.80853200       0.00000000       0.00000000 </v>
    <v>       0.00000000       6.47024300       0.00000000 </v>
    <v>       0.00000000       0.00000000      25.88097200 </v>
   </varray>
   <i name="volume">   2144.86781344 </i>
   <varray name="rec_basis" >
    <v>       0.07807296       0.00000000       0.00000000 </v>
    <v>       0.00000000       0.15455370       0.00000000 </v>
    <v>       0.00000000       0.00000000       0.03863843 </v>
   </varray>
  </crystal>
  <varray name="positions" >
   <v>       0.12500000       0.50000000       0.18750000 </v>
   <v>       0.37500000       0.50000000       0.18750000 </v>
   <v>       0.12500000       0.00000000       0.06250000 </v>
   <v>       0.37500000       0.00000000       0.06250000 </v>
   <v>       0.00000000       0.50000000       0.06250000 </v>
   <v>       0.25000000       0.50000000       0.06250000 </v>
   <v>       0.00000000       0.00000000       0.18750000 </v>
   <v>       0.25000000       0.00000000       0.18750000 </v>
   <v>       0.12514029       0.50000000       0.43798623 </v>
   <v>       0.37522290       0.50000000       0.43801335 </v>
   <v>       0.12489794       0.00000000       0.31290719 </v>
   <v>       0.37488470       0.00000000       0.31280978 </v>
   <v>      -0.00000084       0.50000000       0.31289613 </v>
   <v>       0.24995380       0.50000000       0.31292907 </v>
   <v>       1.00030226       0.00000000       0.44147918 </v>
   <v>       0.25010153       0.00000000       0.44157842 </v>
   <v>       0.00000000       0.50000000       0.13961000 </v>
   <v>       0.25000000       0.50000000       0.13961000 </v>
   <v>       0.00000000       0.00000000       0.01461000 </v>
   <v>       0.25000000       0.00000000       0.01461000 </v>
   <v>       0.12500000       0.80844000       0.18750000 </v>
   <v>       0.37500000       0.80844000       0.18750000 </v>
   <v>       0.12500000       0.30844000       0.06250000 </v>
   <v>       0.37500000       0.30844000       0.06250000 </v>
   <v>       0.00000000       0.50000000       0.23539000 </v>
   <v>       0.25000000       0.50000000       0.23539000 </v>
   <v>       0.00000000       0.00000000       0.11039000 </v>
   <v>       0.25000000       0.00000000       0.11039000 </v>
   <v>       0.12500000       0.19156000       0.18750000 </v>
   <v>       0.37500000       0.19156000       0.18750000 </v>
   <v>       0.12500000       0.69156000       0.06250000 </v>
   <v>       0.37500000       0.69156000       0.06250000 </v>
   <v>       1.00007006       0.50000000       0.38945537 </v>
   <v>       0.25012671       0.50000000       0.38952370 </v>
   <v>       0.00005424       0.00000000       0.26490867 </v>
   <v>       0.24978363       0.00000000       0.26482556 </v>
   <v>       0.12501751       0.80872981       0.43609541 </v>
   <v>       0.37532754       0.80894320       0.43659202 </v>
   <v>       0.12480682       0.30761257       0.31264621 </v>
   <v>       0.37499941       0.30758309       0.31250557 </v>
   <v>       0.00034306       0.50000000       0.48354468 </v>
   <v>       0.25007705       0.50000000       0.48353652 </v>
   <v>       0.99978593       0.00000000       0.36090115 </v>
   <v>       0.25006523       0.00000000       0.36097374 </v>
   <v>       0.12501751       0.19127019       0.43609541 </v>
   <v>       0.37532754       0.19105680       0.43659202 </v>
   <v>       0.12480682       0.69238743       0.31264621 </v>
   <v>       0.37499941       0.69241691       0.31250557 </v>
   <v>       0.24826169       0.00000000       0.51101794 </v>
   <v>       0.00145018       0.00000000       0.51087388 </v>
   <v>       0.62500000       0.50000000       0.18750000 </v>
   <v>       0.87500000       0.50000000       0.18750000 </v>
   <v>       0.62500000       0.00000000       0.06250000 </v>
   <v>       0.87500000       0.00000000       0.06250000 </v>
   <v>       0.50000000       0.50000000       0.06250000 </v>
   <v>       0.75000000       0.50000000       0.06250000 </v>
   <v>       0.50000000       0.00000000       0.18750000 </v>
   <v>       0.75000000       0.00000000       0.18750000 </v>
   <v>       0.62529851       0.50000000       0.43766514 </v>
   <v>       0.87527664       0.50000000       0.43799183 </v>
   <v>       0.62490755       0.00000000       0.31272726 </v>
   <v>       0.87504209       0.00000000       0.31274197 </v>
   <v>       0.49988669       0.50000000       0.31280669 </v>
   <v>       0.75003037       0.50000000       0.31278390 </v>
   <v>       0.50046764       0.00000000       0.44125294 </v>
   <v>       0.75030979       0.00000000       0.44112913 </v>
   <v>       0.50000000       0.50000000       0.13961000 </v>
   <v>       0.75000000       0.50000000       0.13961000 </v>
   <v>       0.50000000       0.00000000       0.01461000 </v>
   <v>       0.75000000       0.00000000       0.01461000 </v>
   <v>       0.62500000       0.80844000       0.18750000 </v>
   <v>       0.87500000       0.80844000       0.18750000 </v>
   <v>       0.62500000       0.30844000       0.06250000 </v>
   <v>       0.87500000       0.30844000       0.06250000 </v>
   <v>       0.50000000       0.50000000       0.23539000 </v>
   <v>       0.75000000       0.50000000       0.23539000 </v>
   <v>       0.50000000       0.00000000       0.11039000 </v>
   <v>       0.75000000       0.00000000       0.11039000 </v>
   <v>       0.62500000       0.19156000       0.18750000 </v>
   <v>       0.87500000       0.19156000       0.18750000 </v>
   <v>       0.62500000       0.69156000       0.06250000 </v>
   <v>       0.87500000       0.69156000       0.06250000 </v>
   <v>       0.49993396       0.50000000       0.38927944 </v>
   <v>       0.75038859       0.50000000       0.38934131 </v>
   <v>       0.49992058       0.00000000       0.26487930 </v>
   <v>       0.74999514       0.00000000       0.26478356 </v>
   <v>       0.62537380       0.80879217       0.43552152 </v>
   <v>       0.87545651       0.80879539       0.43641590 </v>
   <v>       0.62477048       0.30770999       0.31236876 </v>
   <v>       0.87515679       0.30766102       0.31240344 </v>
   <v>       0.50064540       0.50000000       0.48323518 </v>
   <v>       0.74999653       0.50000000       0.48336406 </v>
   <v>       0.49987122       0.00000000       0.36078835 </v>
   <v>       0.75014719       0.00000000       0.36066027 </v>
   <v>       0.62537380       0.19120783       0.43552152 </v>
   <v>       0.87545651       0.19120461       0.43641590 </v>
   <v>       0.62477048       0.69229001       0.31236876 </v>
   <v>       0.87515679       0.69233898       0.31240344 </v>
   <v>       0.74920887       0.00000000       0.51055418 </v>
   <v>       0.50190929       0.00000000       0.51065574 </v>
  </varray>
  <varray name="selective"  type="logical" >
   <v type="logical" >  F  F  F </v>
   <v type="logical" >  F  F  F </v>
   <v type="logical" >  F  F  F </v>
   <v type="logical" >  F  F  F </v>
   <v type="logical" >  F  F  F </v>
   <v type="logical" >  F  F  F </v>
   <v type="logical" >  F  F  F </v>
   <v type="logical" >  F  F  F </v>
   <v type="logical" >  T  T  T </v>
   <v type="logical" >  T  T  T </v>
   <v type="logical" >  T  T  T </v>
   <v type="logical" >  T  T  T </v>
   <v type="logical" >  T  T  T </v>
   <v type="logical" >  T  T  T </v>
   <v type="logical" >  T  T  T </v>
   <v type="logical" >  T  T  T </v>
   <v type="logical" >  F  F  F </v>
   <v type="logical" >  F  F  F </v>
   <v type="logical" >  F  F  F </v>
   <v type="logical" >  F  F  F </v>
   <v type="logical" >  F  F  F </v>
   <v type="logical" >  F  F  F </v>
   <v type="logical" >  F  F  F </v>
   <v type="logical" >  F  F  F </v>
   <v type="logical" >  F  F  F </v>
   <v type="logical" >  F  F  F </v>
   <v type="logical" >  F  F  F </v>
   <v type="logical" >  F  F  F </v>
   <v type="logical" >  F  F  F </v>
   <v type="logical" >  F  F  F </v>
   <v type="logical" >  F  F  F </v>
   <v type="logical" >  F  F  F </v>
   <v type="logical" >  T  T  T </v>
   <v type="logical" >  T  T  T </v>
   <v type="logical" >  T  T  T </v>
   <v type="logical" >  T  T  T </v>
   <v type="logical" >  T  T  T </v>
   <v type="logical" >  T  T  T </v>
   <v type="logical" >  T  T  T </v>
   <v type="logical" >  T  T  T </v>
   <v type="logical" >  T  T  T </v>
   <v type="logical" >  T  T  T </v>
   <v type="logical" >  T  T  T </v>
   <v type="logical" >  T  T  T </v>
   <v type="logical" >  T  T  T </v>
   <v type="logical" >  T  T  T </v>
   <v type="logical" >  T  T  T </v>
   <v type="logical" >  T  T  T </v>
   <v type="logical" >  T  T  T </v>
   <v type="logical" >  T  T  T </v>
   <v type="logical" >  F  F  F </v>
   <v type="logical" >  F  F  F </v>
   <v type="logical" >  F  F  F </v>
   <v type="logical" >  F  F  F </v>
   <v type="logical" >  F  F  F </v>
   <v type="logical" >  F  F  F </v>
   <v type="logical" >  F  F  F </v>
   <v type="logical" >  F  F  F </v>
   <v type="logical" >  T  T  T </v>
   <v type="logical" >  T  T  T </v>
   <v type="logical" >  T  T  T </v>
   <v type="logical" >  T  T  T </v>
   <v type="logical" >  T  T  T </v>
   <v type="logical" >  T  T  T </v>
   <v type="logical" >  T  T  T </v>
   <v type="logical" >  T  T  T </v>
   <v type="logical" >  F  F  F </v>
   <v type="logical" >  F  F  F </v>
   <v type="logical" >  F  F  F </v>
   <v type="logical" >  F  F  F </v>
   <v type="logical" >  F  F  F </v>
   <v type="logical" >  F  F  F </v>
   <v type="logical" >  F  F  F </v>
   <v type="logical" >  F  F  F </v>
   <v type="logical" >  F  F  F </v>
   <v type="logical" >  F  F  F </v>
   <v type="logical" >  F  F  F </v>
   <v type="logical" >  F  F  F </v>
   <v type="logical" >  F  F  F </v>
   <v type="logical" >  F  F  F </v>
   <v type="logical" >  F  F  F </v>
   <v type="logical" >  F  F  F </v>
   <v type="logical" >  T  T  T </v>
   <v type="logical" >  T  T  T </v>
   <v type="logical" >  T  T  T </v>
   <v type="logical" >  T  T  T </v>
   <v type="logical" >  T  T  T </v>
   <v type="logical" >  T  T  T </v>
   <v type="logical" >  T  T  T </v>
   <v type="logical" >  T  T  T </v>
   <v type="logical" >  T  T  T </v>
   <v type="logical" >  T  T  T </v>
   <v type="logical" >  T  T  T </v>
   <v type="logical" >  T  T  T </v>
   <v type="logical" >  T  T  T </v>
   <v type="logical" >  T  T  T </v>
   <v type="logical" >  T  T  T </v>
   <v type="logical" >  T  T  T </v>
   <v type="logical" >  T  T  T </v>
   <v type="logical" >  T  T  T </v>
  </varray>
  <nose>
   <v>      -3.00000000       0.00000000       0.00010000       0.00010000 </v>
  </nose>
 </structure>
</modeling>
