unknown system                          
           1
    12.808532    0.000000    0.000000
     0.000000    6.470243    0.000000
     0.000000    0.000000   25.880972
   Ir   O    Ir   O 
  16  34  16  34
Direct configuration=     1
   0.12500000  0.50000000  0.18750000
   0.37500000  0.50000000  0.18750000
   0.12500000  0.00000000  0.06250000
   0.37500000  0.00000000  0.06250000
   0.00000000  0.50000000  0.06250000
   0.25000000  0.50000000  0.06250000
   0.00000000  0.00000000  0.18750000
   0.25000000  0.00000000  0.18750000
   0.12499015  0.50000000  0.43806198
   0.37530277  0.50000000  0.43824627
   0.12490588  0.00000000  0.31304178
   0.37475310  0.00000000  0.31277418
   0.00001392  0.50000000  0.31295959
   0.24992868  0.50000000  0.31298735
   0.99989434  0.00000000  0.44178380
   0.25018733  0.00000000  0.44185293
   0.00000000  0.50000000  0.13961000
   0.25000000  0.50000000  0.13961000
   0.00000000  0.00000000  0.01461000
   0.25000000  0.00000000  0.01461000
   0.12500000  0.80844000  0.18750000
   0.37500000  0.80844000  0.18750000
   0.12500000  0.30844000  0.06250000
   0.37500000  0.30844000  0.06250000
   0.00000000  0.50000000  0.23539000
   0.25000000  0.50000000  0.23539000
   0.00000000  0.00000000  0.11039000
   0.25000000  0.00000000  0.11039000
   0.12500000  0.19156000  0.18750000
   0.37500000  0.19156000  0.18750000
   0.12500000  0.69156000  0.06250000
   0.37500000  0.69156000  0.06250000
   0.99983307  0.50000000  0.38966546
   0.25013556  0.50000000  0.38963386
   0.00015426  0.00000000  0.26490926
   0.24968841  0.00000000  0.26482941
   0.12486451  0.80896642  0.43608892
   0.37593323  0.80912993  0.43768716
   0.12481715  0.30763770  0.31269691
   0.37495155  0.30757951  0.31248712
   0.00012725  0.50000000  0.48368250
   0.24992930  0.50000000  0.48367238
   0.99951917  0.00000000  0.36112862
   0.25033888  0.00000000  0.36117246
   0.12486451  0.19103358  0.43608892
   0.37593323  0.19087007  0.43768716
   0.12481715  0.69236230  0.31269691
   0.37495155  0.69242049  0.31248712
   0.24828980  0.00000000  0.51125699
   0.00174111  0.00000000  0.51116502
   0.62500000  0.50000000  0.18750000
   0.87500000  0.50000000  0.18750000
   0.62500000  0.00000000  0.06250000
   0.87500000  0.00000000  0.06250000
   0.50000000  0.50000000  0.06250000
   0.75000000  0.50000000  0.06250000
   0.50000000  0.00000000  0.18750000
   0.75000000  0.00000000  0.18750000
   0.62507773  0.50000000  0.43711872
   0.87483718  0.50000000  0.43824676
   0.62484352  0.00000000  0.31268569
   0.87516664  0.00000000  0.31269277
   0.49981304  0.50000000  0.31274043
   0.75007558  0.50000000  0.31269713
   0.50109214  0.00000000  0.44092879
   0.74924325  0.00000000  0.44073788
   0.50000000  0.50000000  0.13961000
   0.75000000  0.50000000  0.13961000
   0.50000000  0.00000000  0.01461000
   0.75000000  0.00000000  0.01461000
   0.62500000  0.80844000  0.18750000
   0.87500000  0.80844000  0.18750000
   0.62500000  0.30844000  0.06250000
   0.87500000  0.30844000  0.06250000
   0.50000000  0.50000000  0.23539000
   0.75000000  0.50000000  0.23539000
   0.50000000  0.00000000  0.11039000
   0.75000000  0.00000000  0.11039000
   0.62500000  0.19156000  0.18750000
   0.87500000  0.19156000  0.18750000
   0.62500000  0.69156000  0.06250000
   0.87500000  0.69156000  0.06250000
   0.49958716  0.50000000  0.38916592
   0.75051887  0.50000000  0.38915329
   0.49986712  0.00000000  0.26485663
   0.74996251  0.00000000  0.26474570
   0.62513987  0.80821680  0.43353555
   0.87454306  0.80908931  0.43750236
   0.62476446  0.30779040  0.31231698
   0.87522575  0.30768253  0.31236141
   0.50149451  0.50000000  0.48314824
   0.74868773  0.50000000  0.48319728
   0.49930877  0.00000000  0.36066782
   0.75055920  0.00000000  0.36050739
   0.62513987  0.19178320  0.43353555
   0.87454306  0.19091069  0.43750236
   0.62476446  0.69220960  0.31231698
   0.87522575  0.69231747  0.31236141
   0.73962255  0.00000000  0.50998440
   0.51117081  0.00000000  0.51016215
Direct configuration=     2
   0.12500000  0.50000000  0.18750000
   0.37500000  0.50000000  0.18750000
   0.12500000  0.00000000  0.06250000
   0.37500000  0.00000000  0.06250000
   0.00000000  0.50000000  0.06250000
   0.25000000  0.50000000  0.06250000
   0.00000000  0.00000000  0.18750000
   0.25000000  0.00000000  0.18750000
   0.12498855  0.50000000  0.43806544
   0.37528804  0.50000000  0.43824146
   0.12490126  0.00000000  0.31304175
   0.37476330  0.00000000  0.31277332
   0.00001224  0.50000000  0.31295686
   0.24992542  0.50000000  0.31297880
   0.99992551  0.00000000  0.44179721
   0.25017451  0.00000000  0.44184252
   0.00000000  0.50000000  0.13961000
   0.25000000  0.50000000  0.13961000
   0.00000000  0.00000000  0.01461000
   0.25000000  0.00000000  0.01461000
   0.12500000  0.80844000  0.18750000
   0.37500000  0.80844000  0.18750000
   0.12500000  0.30844000  0.06250000
   0.37500000  0.30844000  0.06250000
   0.00000000  0.50000000  0.23539000
   0.25000000  0.50000000  0.23539000
   0.00000000  0.00000000  0.11039000
   0.25000000  0.00000000  0.11039000
   0.12500000  0.19156000  0.18750000
   0.37500000  0.19156000  0.18750000
   0.12500000  0.69156000  0.06250000
   0.37500000  0.69156000  0.06250000
   0.99990784  0.50000000  0.38965266
   0.25011614  0.50000000  0.38962444
   0.00014407  0.00000000  0.26490276
   0.24969828  0.00000000  0.26482174
   0.12487823  0.80897818  0.43609614
   0.37586060  0.80904788  0.43763059
   0.12481327  0.30763291  0.31268697
   0.37494814  0.30758308  0.31248186
   0.00013939  0.50000000  0.48368001
   0.24993226  0.50000000  0.48366062
   0.99970617  0.00000000  0.36111681
   0.25029307  0.00000000  0.36117740
   0.12487823  0.19102182  0.43609614
   0.37586060  0.19095212  0.43763059
   0.12481327  0.69236709  0.31268697
   0.37494814  0.69241692  0.31248186
   0.24825132  0.00000000  0.51123855
   0.00175053  0.00000000  0.51114246
   0.62500000  0.50000000  0.18750000
   0.87500000  0.50000000  0.18750000
   0.62500000  0.00000000  0.06250000
   0.87500000  0.00000000  0.06250000
   0.50000000  0.50000000  0.06250000
   0.75000000  0.50000000  0.06250000
   0.50000000  0.00000000  0.18750000
   0.75000000  0.00000000  0.18750000
   0.62509225  0.50000000  0.43716291
   0.87485260  0.50000000  0.43824072
   0.62485939  0.00000000  0.31268466
   0.87514281  0.00000000  0.31269462
   0.49982494  0.50000000  0.31274410
   0.75006128  0.50000000  0.31270193
   0.50104802  0.00000000  0.44094377
   0.74934846  0.00000000  0.44075769
   0.50000000  0.50000000  0.13961000
   0.75000000  0.50000000  0.13961000
   0.50000000  0.00000000  0.01461000
   0.75000000  0.00000000  0.01461000
   0.62500000  0.80844000  0.18750000
   0.87500000  0.80844000  0.18750000
   0.62500000  0.30844000  0.06250000
   0.87500000  0.30844000  0.06250000
   0.50000000  0.50000000  0.23539000
   0.75000000  0.50000000  0.23539000
   0.50000000  0.00000000  0.11039000
   0.75000000  0.00000000  0.11039000
   0.62500000  0.19156000  0.18750000
   0.87500000  0.19156000  0.18750000
   0.62500000  0.69156000  0.06250000
   0.87500000  0.69156000  0.06250000
   0.49959249  0.50000000  0.38917671
   0.75051118  0.50000000  0.38916122
   0.49988883  0.00000000  0.26484253
   0.74996718  0.00000000  0.26474414
   0.62517612  0.80826710  0.43370847
   0.87463385  0.80908945  0.43742336
   0.62475955  0.30775005  0.31232225
   0.87521646  0.30769626  0.31235898
   0.50140795  0.50000000  0.48315348
   0.74876216  0.50000000  0.48319844
   0.49935149  0.00000000  0.36064367
   0.75051422  0.00000000  0.36049705
   0.62517612  0.19173290  0.43370847
   0.87463385  0.19091055  0.43742336
   0.62475955  0.69224995  0.31232225
   0.87521646  0.69230374  0.31235898
   0.74055470  0.00000000  0.51004138
   0.51025608  0.00000000  0.51020280
Direct configuration=     3
   0.12500000  0.50000000  0.18750000
   0.37500000  0.50000000  0.18750000
   0.12500000  0.00000000  0.06250000
   0.37500000  0.00000000  0.06250000
   0.00000000  0.50000000  0.06250000
   0.25000000  0.50000000  0.06250000
   0.00000000  0.00000000  0.18750000
   0.25000000  0.00000000  0.18750000
   0.12502150  0.50000000  0.43804867
   0.37525200  0.50000000  0.43820406
   0.12495161 -0.00000000  0.31301159
   0.37475679 -0.00000000  0.31276158
   0.00001476  0.50000000  0.31294508
   0.24992428  0.50000000  0.31297526
   1.00000446 -0.00000000  0.44172619
   0.25016687 -0.00000000  0.44181309
   0.00000000  0.50000000  0.13961000
   0.25000000  0.50000000  0.13961000
   0.00000000  0.00000000  0.01461000
   0.25000000  0.00000000  0.01461000
   0.12500000  0.80844000  0.18750000
   0.37500000  0.80844000  0.18750000
   0.12500000  0.30844000  0.06250000
   0.37500000  0.30844000  0.06250000
   0.00000000  0.50000000  0.23539000
   0.25000000  0.50000000  0.23539000
   0.00000000  0.00000000  0.11039000
   0.25000000  0.00000000  0.11039000
   0.12500000  0.19156000  0.18750000
   0.37500000  0.19156000  0.18750000
   0.12500000  0.69156000  0.06250000
   0.37500000  0.69156000  0.06250000
   0.99980532  0.50000000  0.38963362
   0.25012915  0.50000000  0.38963409
   0.00015675 -0.00000000  0.26493349
   0.24971082 -0.00000000  0.26482324
   0.12487621  0.80889734  0.43609837
   0.37579171  0.80909761  0.43754937
   0.12480124  0.30763581  0.31268763
   0.37495792  0.30757189  0.31247592
   0.00014369  0.50000000  0.48367630
   0.24993085  0.50000000  0.48365468
   0.99953894 -0.00000000  0.36110025
   0.25031740 -0.00000000  0.36114609
   0.12487621  0.19110266  0.43609837
   0.37579171  0.19090239  0.43754937
   0.12480124  0.69236419  0.31268763
   0.37495792  0.69242811  0.31247592
   0.24821418 -0.00000000  0.51122325
   0.00171462 -0.00000000  0.51119208
   0.62500000  0.50000000  0.18750000
   0.87500000  0.50000000  0.18750000
   0.62500000  0.00000000  0.06250000
   0.87500000  0.00000000  0.06250000
   0.50000000  0.50000000  0.06250000
   0.75000000  0.50000000  0.06250000
   0.50000000  0.00000000  0.18750000
   0.75000000  0.00000000  0.18750000
   0.62509981  0.50000000  0.43719274
   0.87493048  0.50000000  0.43820112
   0.62483120 -0.00000000  0.31266407
   0.87524394 -0.00000000  0.31270382
   0.49979377  0.50000000  0.31274258
   0.75006640  0.50000000  0.31270503
   0.50096729 -0.00000000  0.44094994
   0.74945879 -0.00000000  0.44080059
   0.50000000  0.50000000  0.13961000
   0.75000000  0.50000000  0.13961000
   0.50000000  0.00000000  0.01461000
   0.75000000  0.00000000  0.01461000
   0.62500000  0.80844000  0.18750000
   0.87500000  0.80844000  0.18750000
   0.62500000  0.30844000  0.06250000
   0.87500000  0.30844000  0.06250000
   0.50000000  0.50000000  0.23539000
   0.75000000  0.50000000  0.23539000
   0.50000000  0.00000000  0.11039000
   0.75000000  0.00000000  0.11039000
   0.62500000  0.19156000  0.18750000
   0.87500000  0.19156000  0.18750000
   0.62500000  0.69156000  0.06250000
   0.87500000  0.69156000  0.06250000
   0.49963206  0.50000000  0.38919660
   0.75049265  0.50000000  0.38918014
   0.49985377 -0.00000000  0.26486425
   0.74997752 -0.00000000  0.26474538
   0.62517896  0.80828212  0.43389548
   0.87476392  0.80906692  0.43730880
   0.62478005  0.30782089  0.31233493
   0.87520358  0.30767586  0.31235918
   0.50138193  0.50000000  0.48315971
   0.74887329  0.50000000  0.48321408
   0.49940178 -0.00000000  0.36068440
   0.75048646 -0.00000000  0.36054159
   0.62517896  0.19171788  0.43389548
   0.87476392  0.19093308  0.43730880
   0.62478005  0.69217911  0.31233493
   0.87520358  0.69232414  0.31235918
   0.74147273 -0.00000000  0.51008662
   0.50943719 -0.00000000  0.51023907
Direct configuration=     4
   0.12500000  0.50000000  0.18750000
   0.37500000  0.50000000  0.18750000
   0.12500000  0.00000000  0.06250000
   0.37500000  0.00000000  0.06250000
   0.00000000  0.50000000  0.06250000
   0.25000000  0.50000000  0.06250000
   0.00000000  0.00000000  0.18750000
   0.25000000  0.00000000  0.18750000
   0.12498989  0.50000000  0.43804267
   0.37525362  0.50000000  0.43817772
   0.12493755  0.00000000  0.31300544
   0.37480980  0.00000000  0.31277884
  -0.00005240  0.50000000  0.31292566
   0.24991156  0.50000000  0.31297302
   1.00009941  0.00000000  0.44179921
   0.25010741  0.00000000  0.44178281
   0.00000000  0.50000000  0.13961000
   0.25000000  0.50000000  0.13961000
   0.00000000  0.00000000  0.01461000
   0.25000000  0.00000000  0.01461000
   0.12500000  0.80844000  0.18750000
   0.37500000  0.80844000  0.18750000
   0.12500000  0.30844000  0.06250000
   0.37500000  0.30844000  0.06250000
   0.00000000  0.50000000  0.23539000
   0.25000000  0.50000000  0.23539000
   0.00000000  0.00000000  0.11039000
   0.25000000  0.00000000  0.11039000
   0.12500000  0.19156000  0.18750000
   0.37500000  0.19156000  0.18750000
   0.12500000  0.69156000  0.06250000
   0.37500000  0.69156000  0.06250000
   0.99983971  0.50000000  0.38958911
   0.25014378  0.50000000  0.38962951
   0.00014084  0.00000000  0.26491284
   0.24972207  0.00000000  0.26482560
   0.12492236  0.80880639  0.43610784
   0.37561964  0.80911364  0.43733686
   0.12481260  0.30763902  0.31267356
   0.37493077  0.30757297  0.31247629
   0.00018778  0.50000000  0.48364801
   0.24994044  0.50000000  0.48363018
   0.99957129  0.00000000  0.36106932
   0.25029719  0.00000000  0.36109479
   0.12492236  0.19119361  0.43610784
   0.37561964  0.19088636  0.43733686
   0.12481260  0.69236098  0.31267356
   0.37493077  0.69242703  0.31247629
   0.24812822  0.00000000  0.51116137
   0.00169649  0.00000000  0.51107126
   0.62500000  0.50000000  0.18750000
   0.87500000  0.50000000  0.18750000
   0.62500000  0.00000000  0.06250000
   0.87500000  0.00000000  0.06250000
   0.50000000  0.50000000  0.06250000
   0.75000000  0.50000000  0.06250000
   0.50000000  0.00000000  0.18750000
   0.75000000  0.00000000  0.18750000
   0.62514267  0.50000000  0.43729588
   0.87497633  0.50000000  0.43815656
   0.62490154  0.00000000  0.31268712
   0.87507782  0.00000000  0.31271357
   0.49985325  0.50000000  0.31276501
   0.75004885  0.50000000  0.31272660
   0.50082402  0.00000000  0.44101064
   0.74971859  0.00000000  0.44086724
   0.50000000  0.50000000  0.13961000
   0.75000000  0.50000000  0.13961000
   0.50000000  0.00000000  0.01461000
   0.75000000  0.00000000  0.01461000
   0.62500000  0.80844000  0.18750000
   0.87500000  0.80844000  0.18750000
   0.62500000  0.30844000  0.06250000
   0.87500000  0.30844000  0.06250000
   0.50000000  0.50000000  0.23539000
   0.75000000  0.50000000  0.23539000
   0.50000000  0.00000000  0.11039000
   0.75000000  0.00000000  0.11039000
   0.62500000  0.19156000  0.18750000
   0.87500000  0.19156000  0.18750000
   0.62500000  0.69156000  0.06250000
   0.87500000  0.69156000  0.06250000
   0.49969897  0.50000000  0.38922808
   0.75052567  0.50000000  0.38922166
   0.49983794  0.00000000  0.26485585
   0.75002864  0.00000000  0.26475050
   0.62522814  0.80837859  0.43431743
   0.87496514  0.80898784  0.43703567
   0.62475233  0.30780121  0.31232948
   0.87523949  0.30764464  0.31237206
   0.50127351  0.50000000  0.48316970
   0.74908378  0.50000000  0.48322973
   0.49946852  0.00000000  0.36071673
   0.75039187  0.00000000  0.36058149
   0.62522814  0.19162141  0.43431743
   0.87496514  0.19101216  0.43703567
   0.62475233  0.69219879  0.31232948
   0.87523949  0.69235536  0.31237206
   0.74341980  0.00000000  0.51021460
   0.50772413  0.00000000  0.51030454
Direct configuration=     5
   0.12500000  0.50000000  0.18750000
   0.37500000  0.50000000  0.18750000
   0.12500000  0.00000000  0.06250000
   0.37500000  0.00000000  0.06250000
   0.00000000  0.50000000  0.06250000
   0.25000000  0.50000000  0.06250000
   0.00000000  0.00000000  0.18750000
   0.25000000  0.00000000  0.18750000
   0.12501578  0.50000000  0.43802895
   0.37523900  0.50000000  0.43814965
   0.12487186  0.00000000  0.31299284
   0.37482825  0.00000000  0.31278785
  -0.00000749  0.50000000  0.31290322
   0.24991008  0.50000000  0.31297098
   1.00017728  0.00000000  0.44164598
   0.25006650  0.00000000  0.44169774
   0.00000000  0.50000000  0.13961000
   0.25000000  0.50000000  0.13961000
   0.00000000  0.00000000  0.01461000
   0.25000000  0.00000000  0.01461000
   0.12500000  0.80844000  0.18750000
   0.37500000  0.80844000  0.18750000
   0.12500000  0.30844000  0.06250000
   0.37500000  0.30844000  0.06250000
   0.00000000  0.50000000  0.23539000
   0.25000000  0.50000000  0.23539000
   0.00000000  0.00000000  0.11039000
   0.25000000  0.00000000  0.11039000
   0.12500000  0.19156000  0.18750000
   0.37500000  0.19156000  0.18750000
   0.12500000  0.69156000  0.06250000
   0.37500000  0.69156000  0.06250000
   0.99990444  0.50000000  0.38954009
   0.25013507  0.50000000  0.38960423
   0.00009056  0.00000000  0.26489517
   0.24975418  0.00000000  0.26482981
   0.12495884  0.80877133  0.43612560
   0.37542683  0.80905778  0.43706962
   0.12479397  0.30764924  0.31265896
   0.37494878  0.30759409  0.31247480
   0.00022543  0.50000000  0.48362823
   0.24999692  0.50000000  0.48360757
   0.99962288  0.00000000  0.36104213
   0.25023601  0.00000000  0.36104904
   0.12495884  0.19122867  0.43612560
   0.37542683  0.19094222  0.43706962
   0.12479397  0.69235076  0.31265896
   0.37494878  0.69240591  0.31247480
   0.24807234  0.00000000  0.51111326
   0.00164715  0.00000000  0.51109392
   0.62500000  0.50000000  0.18750000
   0.87500000  0.50000000  0.18750000
   0.62500000  0.00000000  0.06250000
   0.87500000  0.00000000  0.06250000
   0.50000000  0.50000000  0.06250000
   0.75000000  0.50000000  0.06250000
   0.50000000  0.00000000  0.18750000
   0.75000000  0.00000000  0.18750000
   0.62519790  0.50000000  0.43742381
   0.87506088  0.50000000  0.43809973
   0.62487068  0.00000000  0.31271632
   0.87509272  0.00000000  0.31273747
   0.49983114  0.50000000  0.31278481
   0.75005620  0.50000000  0.31275105
   0.50069065  0.00000000  0.44105494
   0.74992318  0.00000000  0.44095860
   0.50000000  0.50000000  0.13961000
   0.75000000  0.50000000  0.13961000
   0.50000000  0.00000000  0.01461000
   0.75000000  0.00000000  0.01461000
   0.62500000  0.80844000  0.18750000
   0.87500000  0.80844000  0.18750000
   0.62500000  0.30844000  0.06250000
   0.87500000  0.30844000  0.06250000
   0.50000000  0.50000000  0.23539000
   0.75000000  0.50000000  0.23539000
   0.50000000  0.00000000  0.11039000
   0.75000000  0.00000000  0.11039000
   0.62500000  0.19156000  0.18750000
   0.87500000  0.19156000  0.18750000
   0.62500000  0.69156000  0.06250000
   0.87500000  0.69156000  0.06250000
   0.49976359  0.50000000  0.38927600
   0.75047631  0.50000000  0.38925938
   0.49988272  0.00000000  0.26484654
   0.75004869  0.00000000  0.26475607
   0.62529059  0.80857959  0.43477565
   0.87520123  0.80891633  0.43676637
   0.62474713  0.30774322  0.31233251
   0.87520839  0.30764662  0.31238162
   0.50109572  0.50000000  0.48320076
   0.74937118  0.50000000  0.48326135
   0.49959989  0.00000000  0.36072226
   0.75030641  0.00000000  0.36060827
   0.62529059  0.19142041  0.43477565
   0.87520123  0.19108367  0.43676637
   0.62474713  0.69225678  0.31233251
   0.87520839  0.69235338  0.31238162
   0.74572049  0.00000000  0.51037282
   0.50563625  0.00000000  0.51045172
Direct configuration=     6
   0.12500000  0.50000000  0.18750000
   0.37500000  0.50000000  0.18750000
   0.12500000  0.00000000  0.06250000
   0.37500000  0.00000000  0.06250000
   0.00000000  0.50000000  0.06250000
   0.25000000  0.50000000  0.06250000
   0.00000000  0.00000000  0.18750000
   0.25000000  0.00000000  0.18750000
   0.12507553  0.50000000  0.43802167
   0.37519922  0.50000000  0.43811469
   0.12489145  0.00000000  0.31296111
   0.37483204  0.00000000  0.31277893
   0.00000390  0.50000000  0.31290779
   0.24992441  0.50000000  0.31296248
   1.00024148  0.00000000  0.44163256
   0.25005220  0.00000000  0.44166204
   0.00000000  0.50000000  0.13961000
   0.25000000  0.50000000  0.13961000
   0.00000000  0.00000000  0.01461000
   0.25000000  0.00000000  0.01461000
   0.12500000  0.80844000  0.18750000
   0.37500000  0.80844000  0.18750000
   0.12500000  0.30844000  0.06250000
   0.37500000  0.30844000  0.06250000
   0.00000000  0.50000000  0.23539000
   0.25000000  0.50000000  0.23539000
   0.00000000  0.00000000  0.11039000
   0.25000000  0.00000000  0.11039000
   0.12500000  0.19156000  0.18750000
   0.37500000  0.19156000  0.18750000
   0.12500000  0.69156000  0.06250000
   0.37500000  0.69156000  0.06250000
   0.99996942  0.50000000  0.38950972
   0.25011336  0.50000000  0.38958040
   0.00007921  0.00000000  0.26491722
   0.24976767  0.00000000  0.26483362
   0.12495792  0.80872357  0.43612083
   0.37535939  0.80896794  0.43689936
   0.12478469  0.30762665  0.31265389
   0.37495731  0.30759828  0.31248196
   0.00024407  0.50000000  0.48360780
   0.25002307  0.50000000  0.48358481
   0.99962128  0.00000000  0.36100463
   0.25018410  0.00000000  0.36102707
   0.12495792  0.19127643  0.43612083
   0.37535939  0.19103206  0.43689936
   0.12478469  0.69237335  0.31265389
   0.37495731  0.69240172  0.31248196
   0.24806091  0.00000000  0.51106577
   0.00157839  0.00000000  0.51101983
   0.62500000  0.50000000  0.18750000
   0.87500000  0.50000000  0.18750000
   0.62500000  0.00000000  0.06250000
   0.87500000  0.00000000  0.06250000
   0.50000000  0.50000000  0.06250000
   0.75000000  0.50000000  0.06250000
   0.50000000  0.00000000  0.18750000
   0.75000000  0.00000000  0.18750000
   0.62522775  0.50000000  0.43750884
   0.87515250  0.50000000  0.43806309
   0.62487602  0.00000000  0.31270777
   0.87510528  0.00000000  0.31274182
   0.49982914  0.50000000  0.31279875
   0.75003282  0.50000000  0.31275945
   0.50056621  0.00000000  0.44113693
   0.75009840  0.00000000  0.44104743
   0.50000000  0.50000000  0.13961000
   0.75000000  0.50000000  0.13961000
   0.50000000  0.00000000  0.01461000
   0.75000000  0.00000000  0.01461000
   0.62500000  0.80844000  0.18750000
   0.87500000  0.80844000  0.18750000
   0.62500000  0.30844000  0.06250000
   0.87500000  0.30844000  0.06250000
   0.50000000  0.50000000  0.23539000
   0.75000000  0.50000000  0.23539000
   0.50000000  0.00000000  0.11039000
   0.75000000  0.00000000  0.11039000
   0.62500000  0.19156000  0.18750000
   0.87500000  0.19156000  0.18750000
   0.62500000  0.69156000  0.06250000
   0.87500000  0.69156000  0.06250000
   0.49981730  0.50000000  0.38927816
   0.75040278  0.50000000  0.38929003
   0.49988934  0.00000000  0.26486774
   0.75003967  0.00000000  0.26476916
   0.62535380  0.80868629  0.43506644
   0.87530706  0.80882902  0.43660005
   0.62476084  0.30776484  0.31234827
   0.87518273  0.30766404  0.31238815
   0.50098200  0.50000000  0.48321024
   0.74958644  0.50000000  0.48327870
   0.49970123  0.00000000  0.36075820
   0.75024236  0.00000000  0.36063357
   0.62535380  0.19131371  0.43506644
   0.87530706  0.19117098  0.43660005
   0.62476084  0.69223516  0.31234827
   0.87518273  0.69233596  0.31238815
   0.74716646  0.00000000  0.51042535
   0.50429488  0.00000000  0.51050277
Direct configuration=     7
   0.12500000  0.50000000  0.18750000
   0.37500000  0.50000000  0.18750000
   0.12500000  0.00000000  0.06250000
   0.37500000  0.00000000  0.06250000
   0.00000000  0.50000000  0.06250000
   0.25000000  0.50000000  0.06250000
   0.00000000  0.00000000  0.18750000
   0.25000000  0.00000000  0.18750000
   0.12508865  0.50000000  0.43801953
   0.37521916  0.50000000  0.43807240
   0.12490208  0.00000000  0.31294986
   0.37484772  0.00000000  0.31279556
  -0.00001733  0.50000000  0.31289972
   0.24992875  0.50000000  0.31294507
   1.00023182  0.00000000  0.44158693
   0.25007353  0.00000000  0.44162399
   0.00000000  0.50000000  0.13961000
   0.25000000  0.50000000  0.13961000
   0.00000000  0.00000000  0.01461000
   0.25000000  0.00000000  0.01461000
   0.12500000  0.80844000  0.18750000
   0.37500000  0.80844000  0.18750000
   0.12500000  0.30844000  0.06250000
   0.37500000  0.30844000  0.06250000
   0.00000000  0.50000000  0.23539000
   0.25000000  0.50000000  0.23539000
   0.00000000  0.00000000  0.11039000
   0.25000000  0.00000000  0.11039000
   0.12500000  0.19156000  0.18750000
   0.37500000  0.19156000  0.18750000
   0.12500000  0.69156000  0.06250000
   0.37500000  0.69156000  0.06250000
   1.00008951  0.50000000  0.38950188
   0.25011111  0.50000000  0.38956238
   0.00008624  0.00000000  0.26493662
   0.24978361  0.00000000  0.26482320
   0.12495703  0.80875400  0.43610891
   0.37538784  0.80893435  0.43681991
   0.12479604  0.30760850  0.31265067
   0.37496832  0.30759310  0.31249610
   0.00026700  0.50000000  0.48358478
   0.25000977  0.50000000  0.48357655
   0.99972451  0.00000000  0.36097773
   0.25012648  0.00000000  0.36101818
   0.12495703  0.19124600  0.43610891
   0.37538784  0.19106565  0.43681991
   0.12479604  0.69239150  0.31265067
   0.37496832  0.69240690  0.31249610
   0.24813820  0.00000000  0.51106564
   0.00149721  0.00000000  0.51095279
   0.62500000  0.50000000  0.18750000
   0.87500000  0.50000000  0.18750000
   0.62500000  0.00000000  0.06250000
   0.87500000  0.00000000  0.06250000
   0.50000000  0.50000000  0.06250000
   0.75000000  0.50000000  0.06250000
   0.50000000  0.00000000  0.18750000
   0.75000000  0.00000000  0.18750000
   0.62524405  0.50000000  0.43755481
   0.87519278  0.50000000  0.43804110
   0.62489699  0.00000000  0.31271627
   0.87506552  0.00000000  0.31274494
   0.49986441  0.50000000  0.31280090
   0.74999869  0.50000000  0.31276538
   0.50052883  0.00000000  0.44116875
   0.75018270  0.00000000  0.44104677
   0.50000000  0.50000000  0.13961000
   0.75000000  0.50000000  0.13961000
   0.50000000  0.00000000  0.01461000
   0.75000000  0.00000000  0.01461000
   0.62500000  0.80844000  0.18750000
   0.87500000  0.80844000  0.18750000
   0.62500000  0.30844000  0.06250000
   0.87500000  0.30844000  0.06250000
   0.50000000  0.50000000  0.23539000
   0.75000000  0.50000000  0.23539000
   0.50000000  0.00000000  0.11039000
   0.75000000  0.00000000  0.11039000
   0.62500000  0.19156000  0.18750000
   0.87500000  0.19156000  0.18750000
   0.62500000  0.69156000  0.06250000
   0.87500000  0.69156000  0.06250000
   0.49986954  0.50000000  0.38926616
   0.75039022  0.50000000  0.38929970
   0.49990070  0.00000000  0.26487433
   0.75001108  0.00000000  0.26477714
   0.62535710  0.80865716  0.43516728
   0.87532257  0.80886181  0.43657112
   0.62475767  0.30772700  0.31235987
   0.87516053  0.30769769  0.31239316
   0.50087994  0.50000000  0.48321647
   0.74977302  0.50000000  0.48329524
   0.49975940  0.00000000  0.36076819
   0.75022813  0.00000000  0.36061987
   0.62535710  0.19134284  0.43516728
   0.87532257  0.19113819  0.43657112
   0.62475767  0.69227300  0.31235987
   0.87516053  0.69230231  0.31239316
   0.74772473  0.00000000  0.51046864
   0.50357357  0.00000000  0.51057136
Direct configuration=     8
   0.12500000  0.50000000  0.18750000
   0.37500000  0.50000000  0.18750000
   0.12500000  0.00000000  0.06250000
   0.37500000  0.00000000  0.06250000
   0.00000000  0.50000000  0.06250000
   0.25000000  0.50000000  0.06250000
   0.00000000  0.00000000  0.18750000
   0.25000000  0.00000000  0.18750000
   0.12512050  0.50000000  0.43800926
   0.37522694  0.50000000  0.43804792
   0.12491592  0.00000000  0.31293660
   0.37487469  0.00000000  0.31280959
  -0.00000867  0.50000000  0.31290421
   0.24993562  0.50000000  0.31293861
   1.00026343  0.00000000  0.44153301
   0.25008546  0.00000000  0.44162221
   0.00000000  0.50000000  0.13961000
   0.25000000  0.50000000  0.13961000
   0.00000000  0.00000000  0.01461000
   0.25000000  0.00000000  0.01461000
   0.12500000  0.80844000  0.18750000
   0.37500000  0.80844000  0.18750000
   0.12500000  0.30844000  0.06250000
   0.37500000  0.30844000  0.06250000
   0.00000000  0.50000000  0.23539000
   0.25000000  0.50000000  0.23539000
   0.00000000  0.00000000  0.11039000
   0.25000000  0.00000000  0.11039000
   0.12500000  0.19156000  0.18750000
   0.37500000  0.19156000  0.18750000
   0.12500000  0.69156000  0.06250000
   0.37500000  0.69156000  0.06250000
   1.00006829  0.50000000  0.38948021
   0.25012350  0.50000000  0.38954123
   0.00002348  0.00000000  0.26490799
   0.24977409  0.00000000  0.26482317
   0.12498744  0.80872854  0.43610626
   0.37537249  0.80893041  0.43670914
   0.12480175  0.30761115  0.31264973
   0.37500014  0.30758262  0.31250098
   0.00030193  0.50000000  0.48356915
   0.25001671  0.50000000  0.48355526
   0.99974923  0.00000000  0.36094175
   0.25009657  0.00000000  0.36099584
   0.12498744  0.19127146  0.43610626
   0.37537249  0.19106959  0.43670914
   0.12480175  0.69238885  0.31264973
   0.37500014  0.69241738  0.31250098
   0.24819292  0.00000000  0.51103617
   0.00147686  0.00000000  0.51091182
   0.62500000  0.50000000  0.18750000
   0.87500000  0.50000000  0.18750000
   0.62500000  0.00000000  0.06250000
   0.87500000  0.00000000  0.06250000
   0.50000000  0.50000000  0.06250000
   0.75000000  0.50000000  0.06250000
   0.50000000  0.00000000  0.18750000
   0.75000000  0.00000000  0.18750000
   0.62527598  0.50000000  0.43760633
   0.87523870  0.50000000  0.43801036
   0.62488574  0.00000000  0.31272622
   0.87506525  0.00000000  0.31274689
   0.49986371  0.50000000  0.31279880
   0.75000182  0.50000000  0.31277424
   0.50052762  0.00000000  0.44121742
   0.75021526  0.00000000  0.44109195
   0.50000000  0.50000000  0.13961000
   0.75000000  0.50000000  0.13961000
   0.50000000  0.00000000  0.01461000
   0.75000000  0.00000000  0.01461000
   0.62500000  0.80844000  0.18750000
   0.87500000  0.80844000  0.18750000
   0.62500000  0.30844000  0.06250000
   0.87500000  0.30844000  0.06250000
   0.50000000  0.50000000  0.23539000
   0.75000000  0.50000000  0.23539000
   0.50000000  0.00000000  0.11039000
   0.75000000  0.00000000  0.11039000