 100 100   0   0
  0.2144868E+02  0.1280853E-08  0.6470243E-09  0.2588097E-08  0.5000000E-15
  1.000000000000000E-004
  CAR 
 unknown system                          
      8.05191298    -27.33828906  301     -0.27776621      1.00000000
    -27.338  0.0000E+00  0.0000E+00
    -27.220  0.0000E+00  0.0000E+00
    -27.102  0.0000E+00  0.0000E+00
    -26.984  0.0000E+00  0.0000E+00
    -26.866  0.0000E+00  0.0000E+00
    -26.748  0.0000E+00  0.0000E+00
    -26.630  0.0000E+00  0.0000E+00
    -26.513  0.0000E+00  0.0000E+00
    -26.395  0.0000E+00  0.0000E+00
    -26.277  0.0000E+00  0.0000E+00
    -26.159  0.0000E+00  0.0000E+00
    -26.041  0.0000E+00  0.0000E+00
    -25.923  0.3260E-09  0.3846E-10
    -25.805  0.2310E-03  0.2725E-04
    -25.687  0.1193E-01  0.1435E-02
    -25.569  0.1542E-02  0.1617E-02
    -25.451  0.3681E-07  0.1617E-02
    -25.333  0.2130E-16  0.1617E-02
    -25.215  0.0000E+00  0.1617E-02
    -25.097  0.0000E+00  0.1617E-02
    -24.979  0.0000E+00  0.1617E-02
    -24.861  0.0000E+00  0.1617E-02
    -24.743  0.0000E+00  0.1617E-02
    -24.625  0.0000E+00  0.1617E-02
    -24.507  0.0000E+00  0.1617E-02
    -24.389  0.0000E+00  0.1617E-02
    -24.271  0.0000E+00  0.1617E-02
    -24.153  0.0000E+00  0.1617E-02
    -24.035  0.0000E+00  0.1617E-02
    -23.917  0.0000E+00  0.1617E-02
    -23.799  0.0000E+00  0.1617E-02
    -23.681  0.0000E+00  0.1617E-02
    -23.563  0.0000E+00  0.1617E-02
    -23.445  0.0000E+00  0.1617E-02
    -23.327  0.0000E+00  0.1617E-02
    -23.209  0.0000E+00  0.1617E-02
    -23.091  0.0000E+00  0.1617E-02
    -22.973  0.0000E+00  0.1617E-02
    -22.856  0.0000E+00  0.1617E-02
    -22.738  0.0000E+00  0.1617E-02
    -22.620  0.0000E+00  0.1617E-02
    -22.502  0.0000E+00  0.1617E-02
    -22.384  0.0000E+00  0.1617E-02
    -22.266  0.0000E+00  0.1617E-02
    -22.148  0.0000E+00  0.1617E-02
    -22.030  0.0000E+00  0.1617E-02
    -21.912  0.0000E+00  0.1617E-02
    -21.794  0.0000E+00  0.1617E-02
    -21.676  0.0000E+00  0.1617E-02
    -21.558  0.0000E+00  0.1617E-02
    -21.440  0.0000E+00  0.1617E-02
    -21.322  0.0000E+00  0.1617E-02
    -21.204  0.1181E-09  0.1617E-02
    -21.086  0.4340E-04  0.1622E-02
    -20.968  0.2651E-02  0.1935E-02
    -20.850  0.3587E-02  0.2358E-02
    -20.732  0.1353E-01  0.3954E-02
    -20.614  0.9712E-02  0.5099E-02
    -20.496  0.1980E-01  0.7436E-02
    -20.378  0.3058E-01  0.1104E-01
    -20.260  0.3056E-01  0.1465E-01
    -20.142  0.3660E-01  0.1897E-01
    -20.024  0.4171E-01  0.2389E-01
    -19.906  0.6350E-01  0.3138E-01
    -19.788  0.7783E-01  0.4056E-01
    -19.670  0.7359E-01  0.4924E-01
    -19.552  0.7818E-01  0.5846E-01
    -19.434  0.1120E+00  0.7167E-01
    -19.317  0.1093E+00  0.8457E-01
    -19.199  0.4377E-01  0.8973E-01
    -19.081  0.1970E-01  0.9205E-01
    -18.963  0.8962E-03  0.9216E-01
    -18.845  0.5879E-07  0.9216E-01
    -18.727  0.1878E-15  0.9216E-01
    -18.609  0.2536E-18  0.9216E-01
    -18.491  0.1695E-08  0.9216E-01
    -18.373  0.4466E-03  0.9221E-01
    -18.255  0.2468E-01  0.9512E-01
    -18.137  0.3628E-01  0.9940E-01
    -18.019  0.2069E-01  0.1018E+00
    -17.901  0.3128E-01  0.1055E+00
    -17.783  0.2356E-01  0.1083E+00
    -17.665  0.1142E-03  0.1083E+00
    -17.547  0.9564E-10  0.1083E+00
    -17.429  0.0000E+00  0.1083E+00
    -17.311  0.0000E+00  0.1083E+00
    -17.193  0.0000E+00  0.1083E+00
    -17.075  0.0000E+00  0.1083E+00
    -16.957  0.0000E+00  0.1083E+00
    -16.839  0.0000E+00  0.1083E+00
    -16.721  0.0000E+00  0.1083E+00
    -16.603  0.0000E+00  0.1083E+00
    -16.485  0.0000E+00  0.1083E+00
    -16.367  0.0000E+00  0.1083E+00
    -16.249  0.0000E+00  0.1083E+00
    -16.131  0.0000E+00  0.1083E+00
    -16.013  0.0000E+00  0.1083E+00
    -15.895  0.0000E+00  0.1083E+00
    -15.777  0.0000E+00  0.1083E+00
    -15.660  0.0000E+00  0.1083E+00
    -15.542  0.0000E+00  0.1083E+00
    -15.424  0.0000E+00  0.1083E+00
    -15.306  0.0000E+00  0.1083E+00
    -15.188  0.0000E+00  0.1083E+00
    -15.070  0.0000E+00  0.1083E+00
    -14.952  0.0000E+00  0.1083E+00
    -14.834  0.0000E+00  0.1083E+00
    -14.716  0.0000E+00  0.1083E+00
    -14.598  0.1079E-14  0.1083E+00
    -14.480  0.3599E-06  0.1083E+00
    -14.362  0.3284E-02  0.1087E+00
    -14.244  0.1036E-01  0.1099E+00
    -14.126  0.5866E-04  0.1099E+00
    -14.008  0.1669E-10  0.1099E+00
    -13.890  0.0000E+00  0.1099E+00
    -13.772  0.0000E+00  0.1099E+00
    -13.654  0.0000E+00  0.1099E+00
    -13.536  0.0000E+00  0.1099E+00
    -13.418  0.0000E+00  0.1099E+00
    -13.300  0.0000E+00  0.1099E+00
    -13.182  0.0000E+00  0.1099E+00
    -13.064  0.0000E+00  0.1099E+00
    -12.946  0.0000E+00  0.1099E+00
    -12.828  0.0000E+00  0.1099E+00
    -12.710  0.0000E+00  0.1099E+00
    -12.592  0.0000E+00  0.1099E+00
    -12.474  0.0000E+00  0.1099E+00
    -12.356  0.0000E+00  0.1099E+00
    -12.238  0.0000E+00  0.1099E+00
    -12.121  0.0000E+00  0.1099E+00
    -12.003  0.0000E+00  0.1099E+00
    -11.885  0.0000E+00  0.1099E+00
    -11.767  0.0000E+00  0.1099E+00
    -11.649  0.0000E+00  0.1099E+00
    -11.531  0.0000E+00  0.1099E+00
    -11.413  0.0000E+00  0.1099E+00
    -11.295  0.0000E+00  0.1099E+00
    -11.177  0.0000E+00  0.1099E+00
    -11.059  0.0000E+00  0.1099E+00
    -10.941  0.0000E+00  0.1099E+00
    -10.823  0.0000E+00  0.1099E+00
    -10.705  0.0000E+00  0.1099E+00
    -10.587  0.0000E+00  0.1099E+00
    -10.469  0.0000E+00  0.1099E+00
    -10.351  0.0000E+00  0.1099E+00
    -10.233  0.0000E+00  0.1099E+00
    -10.115  0.0000E+00  0.1099E+00
     -9.997  0.0000E+00  0.1099E+00
     -9.879  0.0000E+00  0.1099E+00
     -9.761  0.7993E-14  0.1099E+00
     -9.643  0.4934E-06  0.1099E+00
     -9.525  0.1473E-02  0.1101E+00
     -9.407  0.1117E-01  0.1114E+00
     -9.289  0.5646E-02  0.1121E+00
     -9.171  0.8871E-02  0.1131E+00
     -9.053  0.1265E-01  0.1146E+00
     -8.935  0.8194E-02  0.1156E+00
     -8.817  0.2680E-01  0.1188E+00
     -8.699  0.1304E-01  0.1203E+00
     -8.581  0.3263E-01  0.1242E+00
     -8.464  0.3410E-01  0.1282E+00
     -8.346  0.2603E-01  0.1312E+00
     -8.228  0.4728E-01  0.1368E+00
     -8.110  0.5863E-01  0.1437E+00
     -7.992  0.4705E-01  0.1493E+00
     -7.874  0.6048E-01  0.1564E+00
     -7.756  0.1135E+00  0.1698E+00
     -7.638  0.9615E-01  0.1812E+00
     -7.520  0.7136E-01  0.1896E+00
     -7.402  0.5742E-01  0.1964E+00
     -7.284  0.5025E-01  0.2023E+00
     -7.166  0.4768E-01  0.2079E+00
     -7.048  0.4596E-01  0.2133E+00
     -6.930  0.4058E-01  0.2181E+00
     -6.812  0.4725E-01  0.2237E+00
     -6.694  0.4200E-01  0.2286E+00
     -6.576  0.3243E-01  0.2325E+00
     -6.458  0.3563E-01  0.2367E+00
     -6.340  0.4103E-01  0.2415E+00
     -6.222  0.5332E-01  0.2478E+00
     -6.104  0.4615E-01  0.2533E+00
     -5.986  0.5280E-01  0.2595E+00
     -5.868  0.5473E-01  0.2659E+00
     -5.750  0.5006E-01  0.2718E+00
     -5.632  0.6844E-01  0.2799E+00
     -5.514  0.7380E-01  0.2886E+00
     -5.396  0.6304E-01  0.2961E+00
     -5.278  0.6633E-01  0.3039E+00
     -5.160  0.6050E-01  0.3110E+00
     -5.042  0.6784E-01  0.3190E+00
     -4.924  0.5087E-01  0.3250E+00
     -4.807  0.5638E-01  0.3317E+00
     -4.689  0.7271E-01  0.3403E+00
     -4.571  0.5872E-01  0.3472E+00
     -4.453  0.4296E-01  0.3522E+00
     -4.335  0.4390E-01  0.3574E+00
     -4.217  0.4703E-01  0.3630E+00
     -4.099  0.5224E-01  0.3691E+00
     -3.981  0.4107E-01  0.3740E+00
     -3.863  0.5174E-01  0.3801E+00
     -3.745  0.5973E-01  0.3871E+00
     -3.627  0.4690E-01  0.3927E+00
     -3.509  0.3208E-01  0.3964E+00
     -3.391  0.3960E-01  0.4011E+00
     -3.273  0.5344E-01  0.4074E+00
     -3.155  0.5311E-01  0.4137E+00
     -3.037  0.5574E-01  0.4203E+00
     -2.919  0.3456E-01  0.4243E+00
     -2.801  0.3264E-01  0.4282E+00
     -2.683  0.3064E-01  0.4318E+00
     -2.565  0.3192E-01  0.4356E+00
     -2.447  0.2662E-01  0.4387E+00
     -2.329  0.3394E-01  0.4427E+00
     -2.211  0.5567E-01  0.4493E+00
     -2.093  0.5504E-01  0.4558E+00
     -1.975  0.8318E-01  0.4656E+00
     -1.857  0.9362E-01  0.4766E+00
     -1.739  0.7201E-01  0.4851E+00
     -1.621  0.7683E-01  0.4942E+00
     -1.503  0.6888E-01  0.5023E+00
     -1.385  0.7024E-01  0.5106E+00
     -1.268  0.5077E-01  0.5166E+00
     -1.150  0.3409E-01  0.5206E+00
     -1.032  0.3789E-01  0.5251E+00
     -0.914  0.4949E-01  0.5309E+00
     -0.796  0.4597E-01  0.5363E+00
     -0.678  0.5097E-01  0.5424E+00
     -0.560  0.4866E-01  0.5481E+00
     -0.442  0.5826E-01  0.5550E+00
     -0.324  0.4283E-01  0.5600E+00
     -0.206  0.6354E-01  0.5675E+00
     -0.088  0.6044E-01  0.5746E+00
      0.030  0.5486E-01  0.5811E+00
      0.148  0.4934E-01  0.5869E+00
      0.266  0.4670E-01  0.5925E+00
      0.384  0.3766E-01  0.5969E+00
      0.502  0.1970E-01  0.5992E+00
      0.620  0.1571E-01  0.6011E+00
      0.738  0.2386E-01  0.6039E+00
      0.856  0.1287E-01  0.6054E+00
      0.974  0.9059E-02  0.6065E+00
      1.092  0.8536E-02  0.6075E+00
      1.210  0.2360E-01  0.6103E+00
      1.328  0.2395E-01  0.6131E+00
      1.446  0.1317E-01  0.6146E+00
      1.564  0.1890E-01  0.6169E+00
      1.682  0.2048E-01  0.6193E+00
      1.800  0.2117E-01  0.6218E+00
      1.918  0.3039E-01  0.6254E+00
      2.036  0.1412E-01  0.6270E+00
      2.154  0.3599E-01  0.6313E+00
      2.272  0.3697E-01  0.6356E+00
      2.389  0.4358E-01  0.6408E+00
      2.507  0.1645E-01  0.6427E+00
      2.625  0.2832E-01  0.6461E+00
      2.743  0.3385E-01  0.6501E+00
      2.861  0.2981E-01  0.6536E+00
      2.979  0.2213E-01  0.6562E+00
      3.097  0.3423E-01  0.6602E+00
      3.215  0.3940E-01  0.6649E+00
      3.333  0.4491E-01  0.6702E+00
      3.451  0.3540E-01  0.6743E+00
      3.569  0.3522E-01  0.6785E+00
      3.687  0.3542E-01  0.6827E+00
      3.805  0.4566E-01  0.6881E+00
      3.923  0.3682E-01  0.6924E+00
      4.041  0.1231E-01  0.6939E+00
      4.159  0.1269E-01  0.6954E+00
      4.277  0.9935E-02  0.6965E+00
      4.395  0.2675E-02  0.6968E+00
      4.513  0.1987E-02  0.6971E+00
      4.631  0.7961E-02  0.6980E+00
      4.749  0.7006E-02  0.6988E+00
      4.867  0.7290E-02  0.6997E+00
      4.985  0.3491E-02  0.7001E+00
      5.103  0.3116E-02  0.7005E+00
      5.221  0.1001E-01  0.7017E+00
      5.339  0.9965E-02  0.7028E+00
      5.457  0.2487E-02  0.7031E+00
      5.575  0.1062E-02  0.7033E+00
      5.693  0.8844E-02  0.7043E+00
      5.811  0.1048E-01  0.7055E+00
      5.929  0.9008E-02  0.7066E+00
      6.046  0.3592E-02  0.7070E+00
      6.164  0.1502E-01  0.7088E+00
      6.282  0.8004E-02  0.7097E+00
      6.400  0.6202E-02  0.7105E+00
      6.518  0.7725E-02  0.7114E+00
      6.636  0.1102E-03  0.7114E+00
      6.754  0.1145E-09  0.7114E+00
      6.872  0.0000E+00  0.7114E+00
      6.990  0.0000E+00  0.7114E+00
      7.108  0.0000E+00  0.7114E+00
      7.226  0.0000E+00  0.7114E+00
      7.344  0.0000E+00  0.7114E+00
      7.462  0.0000E+00  0.7114E+00
      7.580  0.0000E+00  0.7114E+00
      7.698  0.0000E+00  0.7114E+00
      7.816  0.0000E+00  0.7114E+00
      7.934  0.0000E+00  0.7114E+00
      8.052  0.0000E+00  0.7114E+00
