       N       E                     dE             d eps       ncg     rms          rms(c)
DAV:   1     0.766823199571E+04    0.76682E+04   -0.31586E+05  3520   0.139E+03
DAV:   2     0.495026971049E+03   -0.71732E+04   -0.66512E+04  3680   0.406E+02
DAV:   3    -0.724717281165E+03   -0.12197E+04   -0.11738E+04  5080   0.168E+02
DAV:   4    -0.780568545913E+03   -0.55851E+02   -0.54567E+02  4360   0.369E+01
DAV:   5    -0.782323097439E+03   -0.17546E+01   -0.17435E+01  4600   0.690E+00    0.172E+02
RMM:   6    -0.708192432617E+03    0.74131E+02   -0.73308E+02  3578   0.406E+01    0.122E+02
RMM:   7    -0.115106097357E+04   -0.44287E+03   -0.41672E+02  3846   0.225E+01    0.308E+02
RMM:   8    -0.929446875082E+03    0.22161E+03   -0.40992E+01  3652   0.119E+01    0.244E+02
RMM:   9    -0.961458740839E+03   -0.32012E+02   -0.14745E+02  3570   0.166E+01    0.272E+02
RMM:  10    -0.859899840652E+03    0.10156E+03   -0.84815E+01  3694   0.112E+01    0.152E+02
RMM:  11    -0.751931049029E+03    0.10797E+03   -0.34392E+01  3548   0.849E+00    0.141E+02
RMM:  12    -0.673855443727E+03    0.78076E+02   -0.81379E+01  3524   0.138E+01    0.797E+01
RMM:  13    -0.663480750737E+03    0.10375E+02   -0.14333E+01  3725   0.528E+00    0.686E+01
RMM:  14    -0.655498549714E+03    0.79822E+01   -0.27780E+00  3739   0.238E+00    0.646E+01
RMM:  15    -0.645332495037E+03    0.10166E+02   -0.23763E+00  3523   0.223E+00    0.430E+01
RMM:  16    -0.641599443978E+03    0.37331E+01   -0.27303E+00  3532   0.239E+00    0.388E+01
RMM:  17    -0.639201993262E+03    0.23975E+01   -0.19470E+00  3544   0.204E+00    0.290E+01
RMM:  18    -0.637368771429E+03    0.18332E+01   -0.64481E-01  3695   0.115E+00    0.246E+01
RMM:  19    -0.637217170419E+03    0.15160E+00   -0.66808E-02  3905   0.446E-01    0.241E+01
RMM:  20    -0.637397132619E+03   -0.17996E+00   -0.82065E-02  3551   0.346E-01    0.245E+01
RMM:  21    -0.636817169062E+03    0.57996E+00   -0.55498E-01  3521   0.113E+00    0.209E+01
RMM:  22    -0.636667583515E+03    0.14959E+00   -0.47612E-01  3531   0.103E+00    0.172E+01
RMM:  23    -0.636618309788E+03    0.49274E-01   -0.68804E-01  3523   0.123E+00    0.128E+01
RMM:  24    -0.636371788034E+03    0.24652E+00   -0.22032E-01  3626   0.750E-01    0.118E+01
RMM:  25    -0.636285770475E+03    0.86018E-01   -0.43768E-02  3842   0.304E-01    0.115E+01
RMM:  26    -0.636125697594E+03    0.16007E+00   -0.30779E-02  3525   0.256E-01    0.103E+01
RMM:  27    -0.635856280993E+03    0.26942E+00   -0.35186E-02  3520   0.275E-01    0.916E+00
RMM:  28    -0.635608949274E+03    0.24733E+00   -0.45530E-02  3528   0.281E-01    0.461E+00
RMM:  29    -0.635625209675E+03   -0.16260E-01   -0.48478E-02  3531   0.335E-01    0.512E+00
RMM:  30    -0.635594391665E+03    0.30818E-01   -0.92733E-03  3592   0.200E-01    0.399E+00
RMM:  31    -0.635597096936E+03   -0.27053E-02   -0.52807E-03  3525   0.116E-01    0.460E+00
RMM:  32    -0.635579695179E+03    0.17402E-01   -0.60919E-03  3521   0.125E-01    0.319E+00
RMM:  33    -0.635575509106E+03    0.41861E-02   -0.45771E-03  3521   0.119E-01    0.318E+00
RMM:  34    -0.635565893556E+03    0.96155E-02   -0.17784E-03  3521   0.796E-02    0.284E+00
RMM:  35    -0.635559644896E+03    0.62487E-02   -0.76899E-04  3533   0.474E-02    0.284E+00
RMM:  36    -0.635553689847E+03    0.59550E-02   -0.19317E-03  3526   0.747E-02    0.253E+00
RMM:  37    -0.635548284596E+03    0.54053E-02   -0.19235E-03  3523   0.770E-02    0.227E+00
RMM:  38    -0.635543536713E+03    0.47479E-02   -0.33303E-04  3550   0.287E-02    0.194E+00
RMM:  39    -0.635537881467E+03    0.56552E-02   -0.11089E-03  3527   0.515E-02    0.146E+00
RMM:  40    -0.635534183313E+03    0.36982E-02   -0.59543E-04  3649   0.376E-02    0.121E+00
RMM:  41    -0.635531653277E+03    0.25300E-02   -0.54673E-04  3534   0.352E-02    0.992E-01
RMM:  42    -0.635529032685E+03    0.26206E-02   -0.55404E-04  3527   0.357E-02    0.782E-01
RMM:  43    -0.635526646285E+03    0.23864E-02   -0.60176E-04  3533   0.361E-02    0.564E-01
RMM:  44    -0.635525694380E+03    0.95190E-03   -0.30128E-04  3551   0.243E-02    0.362E-01
RMM:  45    -0.635525489011E+03    0.20537E-03   -0.95029E-05  2974   0.159E-02    0.289E-01
RMM:  46    -0.635525268307E+03    0.22070E-03   -0.11333E-04  3025   0.162E-02    0.264E-01
RMM:  47    -0.635525119985E+03    0.14832E-03   -0.12776E-04  3079   0.173E-02    0.202E-01
RMM:  48    -0.635525063438E+03    0.56547E-04   -0.37443E-05  2481   0.974E-03    0.824E-02
RMM:  49    -0.635525013146E+03    0.50292E-04   -0.31378E-05  2226   0.100E-02    0.441E-02
RMM:  50    -0.635525064278E+03   -0.51131E-04   -0.12480E-05  2035   0.668E-03    0.482E-02
RMM:  51    -0.635525139097E+03   -0.74819E-04   -0.14516E-05  2072   0.535E-03    0.361E-02
RMM:  52    -0.635525180465E+03   -0.41369E-04   -0.91510E-06  1989   0.577E-03    0.274E-02
RMM:  53    -0.635525206252E+03   -0.25787E-04   -0.43455E-06  1688   0.360E-03    0.136E-02
RMM:  54    -0.635525226894E+03   -0.20642E-04   -0.19863E-06  1444   0.242E-03    0.341E-02
RMM:  55    -0.635525245823E+03   -0.18929E-04   -0.18649E-06  1502   0.252E-03    0.858E-03
RMM:  56    -0.635525264920E+03   -0.19098E-04   -0.13413E-06  1231   0.208E-03    0.279E-02
RMM:  57    -0.635525284868E+03   -0.19947E-04   -0.92601E-07  1078   0.165E-03    0.368E-03
RMM:  58    -0.635525303062E+03   -0.18194E-04   -0.12914E-06  1150   0.193E-03    0.129E-02
RMM:  59    -0.635525314523E+03   -0.11462E-04   -0.95731E-07  1256   0.182E-03    0.289E-03
RMM:  60    -0.635525323462E+03   -0.89390E-05   -0.28697E-07   672   0.112E-03
   1 F= -.63552532E+03 E0= -.63547091E+03  d E =-.108829E+00
