 running on   40 total cores
 distrk:  each k-point on   40 cores,    1 groups
 distr:  one band on    1 cores,   40 groups
 using from now: INCAR     
 vasp.5.4.4.18Apr17-6-g9f103f2a35 (build Feb 25 2019 10:51:38) complex          
  
 POSCAR found type information on POSCAR  Ir O  Ir O 
 POSCAR found :  4 types and     100 ions
 scaLAPACK will be used

 ----------------------------------------------------------------------------- 
|                                                                             |
|           W    W    AA    RRRRR   N    N  II  N    N   GGGG   !!!           |
|           W    W   A  A   R    R  NN   N  II  NN   N  G    G  !!!           |
|           W    W  A    A  R    R  N N  N  II  N N  N  G       !!!           |
|           W WW W  AAAAAA  RRRRR   N  N N  II  N  N N  G  GGG   !            |
|           WW  WW  A    A  R   R   N   NN  II  N   NN  G    G                |
|           W    W  A    A  R    R  N    N  II  N    N   GGGG   !!!           |
|                                                                             |
|      For optimal performance we recommend to set                            |
|        NCORE= 4 - approx SQRT( number of cores)                             |
|      NCORE specifies how many cores store one orbital (NPAR=cpu/NCORE).     |
|      This setting can  greatly improve the performance of VASP for DFT.     |
|      The default,   NCORE=1            might be grossly inefficient         |
|      on modern multi-core architectures or massively parallel machines.     |
|      Do your own testing !!!!                                               |
|      Unfortunately you need to use the default for GW and RPA calculations. |
|      (for HF NCORE is supported but not extensively tested yet)             |
|                                                                             |
 ----------------------------------------------------------------------------- 


 ----------------------------------------------------------------------------- 
|                                                                             |
|  ADVICE TO THIS USER RUNNING 'VASP/VAMP'   (HEAR YOUR MASTER'S VOICE ...):  |
|                                                                             |
|      You enforced a specific xc-type in the INCAR file,                     |
|      a different type was found on the POTCAR file                          |
|          I HOPE YOU KNOW, WHAT YOU ARE  DOING                               |
|                                                                             |
 ----------------------------------------------------------------------------- 

 LDA part: xc-table for Pade appr. of Perdew
 POSCAR found type information on POSCAR  Ir O  Ir O 
 POSCAR found :  4 types and     100 ions
 POSCAR, INCAR and KPOINTS ok, starting setup
 FFT: planning ...
 WAVECAR not read
 WARNING: random wavefunctions but no delay for mixing, default for NELMDL
 entering main loop
       N       E                     dE             d eps       ncg     rms          rms(c)
DAV:   1     0.766823199571E+04    0.76682E+04   -0.31586E+05  3520   0.139E+03
DAV:   2     0.495026971049E+03   -0.71732E+04   -0.66512E+04  3680   0.406E+02
DAV:   3    -0.724717281165E+03   -0.12197E+04   -0.11738E+04  5080   0.168E+02
DAV:   4    -0.780568545913E+03   -0.55851E+02   -0.54567E+02  4360   0.369E+01
DAV:   5    -0.782323097439E+03   -0.17546E+01   -0.17435E+01  4600   0.690E+00    0.172E+02
RMM:   6    -0.708192432617E+03    0.74131E+02   -0.73308E+02  3578   0.406E+01    0.122E+02
RMM:   7    -0.115106097357E+04   -0.44287E+03   -0.41672E+02  3846   0.225E+01    0.308E+02
RMM:   8    -0.929446875082E+03    0.22161E+03   -0.40992E+01  3652   0.119E+01    0.244E+02
RMM:   9    -0.961458740839E+03   -0.32012E+02   -0.14745E+02  3570   0.166E+01    0.272E+02
RMM:  10    -0.859899840652E+03    0.10156E+03   -0.84815E+01  3694   0.112E+01    0.152E+02
RMM:  11    -0.751931049029E+03    0.10797E+03   -0.34392E+01  3548   0.849E+00    0.141E+02
RMM:  12    -0.673855443727E+03    0.78076E+02   -0.81379E+01  3524   0.138E+01    0.797E+01
RMM:  13    -0.663480750737E+03    0.10375E+02   -0.14333E+01  3725   0.528E+00    0.686E+01
RMM:  14    -0.655498549714E+03    0.79822E+01   -0.27780E+00  3739   0.238E+00    0.646E+01
RMM:  15    -0.645332495037E+03    0.10166E+02   -0.23763E+00  3523   0.223E+00    0.430E+01
RMM:  16    -0.641599443978E+03    0.37331E+01   -0.27303E+00  3532   0.239E+00    0.388E+01
RMM:  17    -0.639201993262E+03    0.23975E+01   -0.19470E+00  3544   0.204E+00    0.290E+01
RMM:  18    -0.637368771429E+03    0.18332E+01   -0.64481E-01  3695   0.115E+00    0.246E+01
RMM:  19    -0.637217170419E+03    0.15160E+00   -0.66808E-02  3905   0.446E-01    0.241E+01
RMM:  20    -0.637397132619E+03   -0.17996E+00   -0.82065E-02  3551   0.346E-01    0.245E+01
RMM:  21    -0.636817169062E+03    0.57996E+00   -0.55498E-01  3521   0.113E+00    0.209E+01
RMM:  22    -0.636667583515E+03    0.14959E+00   -0.47612E-01  3531   0.103E+00    0.172E+01
RMM:  23    -0.636618309788E+03    0.49274E-01   -0.68804E-01  3523   0.123E+00    0.128E+01
RMM:  24    -0.636371788034E+03    0.24652E+00   -0.22032E-01  3626   0.750E-01    0.118E+01
RMM:  25    -0.636285770475E+03    0.86018E-01   -0.43768E-02  3842   0.304E-01    0.115E+01
RMM:  26    -0.636125697594E+03    0.16007E+00   -0.30779E-02  3525   0.256E-01    0.103E+01
RMM:  27    -0.635856280993E+03    0.26942E+00   -0.35186E-02  3520   0.275E-01    0.916E+00
RMM:  28    -0.635608949274E+03    0.24733E+00   -0.45530E-02  3528   0.281E-01    0.461E+00
RMM:  29    -0.635625209675E+03   -0.16260E-01   -0.48478E-02  3531   0.335E-01    0.512E+00
RMM:  30    -0.635594391665E+03    0.30818E-01   -0.92733E-03  3592   0.200E-01    0.399E+00
RMM:  31    -0.635597096936E+03   -0.27053E-02   -0.52807E-03  3525   0.116E-01    0.460E+00
RMM:  32    -0.635579695179E+03    0.17402E-01   -0.60919E-03  3521   0.125E-01    0.319E+00
RMM:  33    -0.635575509106E+03    0.41861E-02   -0.45771E-03  3521   0.119E-01    0.318E+00
RMM:  34    -0.635565893556E+03    0.96155E-02   -0.17784E-03  3521   0.796E-02    0.284E+00
RMM:  35    -0.635559644896E+03    0.62487E-02   -0.76899E-04  3533   0.474E-02    0.284E+00
RMM:  36    -0.635553689847E+03    0.59550E-02   -0.19317E-03  3526   0.747E-02    0.253E+00
RMM:  37    -0.635548284596E+03    0.54053E-02   -0.19235E-03  3523   0.770E-02    0.227E+00
RMM:  38    -0.635543536713E+03    0.47479E-02   -0.33303E-04  3550   0.287E-02    0.194E+00
RMM:  39    -0.635537881467E+03    0.56552E-02   -0.11089E-03  3527   0.515E-02    0.146E+00
RMM:  40    -0.635534183313E+03    0.36982E-02   -0.59543E-04  3649   0.376E-02    0.121E+00
RMM:  41    -0.635531653277E+03    0.25300E-02   -0.54673E-04  3534   0.352E-02    0.992E-01
RMM:  42    -0.635529032685E+03    0.26206E-02   -0.55404E-04  3527   0.357E-02    0.782E-01
RMM:  43    -0.635526646285E+03    0.23864E-02   -0.60176E-04  3533   0.361E-02    0.564E-01
RMM:  44    -0.635525694380E+03    0.95190E-03   -0.30128E-04  3551   0.243E-02    0.362E-01
RMM:  45    -0.635525489011E+03    0.20537E-03   -0.95029E-05  2974   0.159E-02    0.289E-01
RMM:  46    -0.635525268307E+03    0.22070E-03   -0.11333E-04  3025   0.162E-02    0.264E-01
RMM:  47    -0.635525119985E+03    0.14832E-03   -0.12776E-04  3079   0.173E-02    0.202E-01
RMM:  48    -0.635525063438E+03    0.56547E-04   -0.37443E-05  2481   0.974E-03    0.824E-02
RMM:  49    -0.635525013146E+03    0.50292E-04   -0.31378E-05  2226   0.100E-02    0.441E-02
RMM:  50    -0.635525064278E+03   -0.51131E-04   -0.12480E-05  2035   0.668E-03    0.482E-02
RMM:  51    -0.635525139097E+03   -0.74819E-04   -0.14516E-05  2072   0.535E-03    0.361E-02
RMM:  52    -0.635525180465E+03   -0.41369E-04   -0.91510E-06  1989   0.577E-03    0.274E-02
RMM:  53    -0.635525206252E+03   -0.25787E-04   -0.43455E-06  1688   0.360E-03    0.136E-02
RMM:  54    -0.635525226894E+03   -0.20642E-04   -0.19863E-06  1444   0.242E-03    0.341E-02
RMM:  55    -0.635525245823E+03   -0.18929E-04   -0.18649E-06  1502   0.252E-03    0.858E-03
RMM:  56    -0.635525264920E+03   -0.19098E-04   -0.13413E-06  1231   0.208E-03    0.279E-02
RMM:  57    -0.635525284868E+03   -0.19947E-04   -0.92601E-07  1078   0.165E-03    0.368E-03
RMM:  58    -0.635525303062E+03   -0.18194E-04   -0.12914E-06  1150   0.193E-03    0.129E-02
RMM:  59    -0.635525314523E+03   -0.11462E-04   -0.95731E-07  1256   0.182E-03    0.289E-03
RMM:  60    -0.635525323462E+03   -0.89390E-05   -0.28697E-07   672   0.112E-03
   1 F= -.63552532E+03 E0= -.63547091E+03  d E =-.108829E+00

 ----------------------------------------------------------------------------- 
|                                                                             |
|           W    W    AA    RRRRR   N    N  II  N    N   GGGG   !!!           |
|           W    W   A  A   R    R  NN   N  II  NN   N  G    G  !!!           |
|           W    W  A    A  R    R  N N  N  II  N N  N  G       !!!           |
|           W WW W  AAAAAA  RRRRR   N  N N  II  N  N N  G  GGG   !            |
|           WW  WW  A    A  R   R   N   NN  II  N   NN  G    G                |
|           W    W  A    A  R    R  N    N  II  N    N   GGGG   !!!           |
|                                                                             |
|      Your timestep is larger than 0.1 Angst.                                |
|      For finite differences this really does not make sense. I will         |
|      reset POTIM to 0.015. I recommend to use 0.01 to 0.02 for finite       |
|      differences.                                                           |
|                                                                             |
 ----------------------------------------------------------------------------- 

 Finite differences POTIM= 0.01500 DOF=   6
 bond charge predicted
       N       E                     dE             d eps       ncg     rms          rms(c)
DAV:   1    -0.635537153380E+03   -0.11839E-01   -0.12937E+00  3640   0.779E-01    0.380E+00
RMM:   2    -0.639369382681E+03   -0.38322E+01   -0.98515E-01  3527   0.680E-01    0.157E+01
RMM:   3    -0.637289947966E+03    0.20794E+01   -0.43497E-01  3526   0.754E-01    0.186E+01
RMM:   4    -0.635819414397E+03    0.14705E+01   -0.17766E-01  3520   0.667E-01    0.751E+00
RMM:   5    -0.635621614740E+03    0.19780E+00   -0.66449E-02  3533   0.407E-01    0.646E+00
RMM:   6    -0.635510332672E+03    0.11128E+00   -0.17500E-02  3564   0.198E-01    0.467E+00
RMM:   7    -0.635495718174E+03    0.14614E-01   -0.32071E-03  3525   0.997E-02    0.376E+00
RMM:   8    -0.635494214042E+03    0.15041E-02   -0.14198E-03  3543   0.570E-02    0.239E+00
RMM:   9    -0.635515412380E+03   -0.21198E-01   -0.31874E-03  3520   0.702E-02    0.269E+00
RMM:  10    -0.635517421982E+03   -0.20096E-02   -0.43886E-03  3519   0.129E-01    0.263E+00
RMM:  11    -0.635507985336E+03    0.94366E-02   -0.46691E-04  3201   0.353E-02    0.181E+00
RMM:  12    -0.635509590575E+03   -0.16052E-02   -0.19332E-04  3064   0.233E-02    0.751E-01
RMM:  13    -0.635517312506E+03   -0.77219E-02   -0.46635E-04  3072   0.394E-02    0.323E-01
RMM:  14    -0.635520210310E+03   -0.28978E-02   -0.70044E-04  3103   0.484E-02    0.443E-01
RMM:  15    -0.635519994923E+03    0.21539E-03   -0.18863E-04  2613   0.231E-02    0.210E-01
RMM:  16    -0.635519942374E+03    0.52549E-04   -0.28118E-05  2061   0.937E-03    0.132E-01
RMM:  17    -0.635519982201E+03   -0.39827E-04   -0.16509E-05  1952   0.749E-03    0.114E-01
RMM:  18    -0.635520008587E+03   -0.26386E-04   -0.40359E-06  1662   0.405E-03    0.998E-02
RMM:  19    -0.635520024449E+03   -0.15862E-04   -0.20210E-06  1560   0.277E-03    0.768E-02
RMM:  20    -0.635520045517E+03   -0.21068E-04   -0.29041E-06  1599   0.304E-03    0.321E-02
RMM:  21    -0.635520069352E+03   -0.23835E-04   -0.62038E-06  1661   0.435E-03    0.548E-03
RMM:  22    -0.635520080376E+03   -0.11024E-04   -0.40589E-06  1537   0.366E-03    0.186E-02
RMM:  23    -0.635520086497E+03   -0.61206E-05   -0.12202E-06  1226   0.209E-03
   2 F= -.63552009E+03 E0= -.63546563E+03  d E =-.108904E+00
 Finite differences progress:
  Degree of freedom:   1/  6
  Displacement:        1/  2
  Total:               1/ 12
 bond charge predicted
       N       E                     dE             d eps       ncg     rms          rms(c)
DAV:   1    -0.635572214387E+03   -0.52134E-01   -0.51614E+00  3680   0.165E+00    0.474E+00
RMM:   2    -0.640475251428E+03   -0.49030E+01   -0.26400E+00  3534   0.925E-01    0.169E+01
RMM:   3    -0.638536694381E+03    0.19386E+01   -0.71822E-01  3527   0.976E-01    0.209E+01
RMM:   4    -0.636229740987E+03    0.23070E+01   -0.41213E-01  3524   0.847E-01    0.973E+00
RMM:   5    -0.635761435715E+03    0.46831E+00   -0.10538E-01  3542   0.475E-01    0.848E+00
RMM:   6    -0.635452499280E+03    0.30894E+00   -0.47065E-02  3550   0.256E-01    0.394E+00
RMM:   7    -0.635479252395E+03   -0.26753E-01   -0.69162E-03  3548   0.138E-01    0.122E+00
RMM:   8    -0.635512839781E+03   -0.33587E-01   -0.50648E-03  3521   0.117E-01    0.151E+00
RMM:   9    -0.635513300174E+03   -0.46039E-03   -0.21852E-03  3568   0.619E-02    0.609E-01
RMM:  10    -0.635521250070E+03   -0.79499E-02   -0.14834E-03  3402   0.599E-02    0.154E+00
RMM:  11    -0.635523174018E+03   -0.19239E-02   -0.20140E-03  3477   0.779E-02    0.246E+00
RMM:  12    -0.635511265698E+03    0.11908E-01   -0.57443E-04  3154   0.455E-02    0.200E+00
RMM:  13    -0.635511924098E+03   -0.65840E-03   -0.49442E-04  3293   0.257E-02    0.170E+00
RMM:  14    -0.635520647555E+03   -0.87235E-02   -0.25590E-03  3359   0.967E-02    0.244E+00
RMM:  15    -0.635506020063E+03    0.14627E-01   -0.60956E-04  3116   0.435E-02    0.801E-01
RMM:  16    -0.635514988703E+03   -0.89686E-02   -0.52581E-04  3088   0.393E-02    0.641E-01
RMM:  17    -0.635517650197E+03   -0.26615E-02   -0.94976E-04  3074   0.571E-02    0.180E-01
RMM:  18    -0.635517630448E+03    0.19750E-04   -0.21795E-05  2012   0.770E-03    0.426E-02
RMM:  19    -0.635517716589E+03   -0.86141E-04   -0.48219E-05  2044   0.117E-02    0.264E-02
RMM:  20    -0.635517756786E+03   -0.40197E-04   -0.60775E-06  1688   0.454E-03    0.104E-01
RMM:  21    -0.635517765346E+03   -0.85604E-05   -0.96308E-06  1633   0.486E-03
   3 F= -.63551777E+03 E0= -.63546337E+03  d E =-.108785E+00
 Finite differences progress:
  Degree of freedom:   1/  6
  Displacement:        2/  2
  Total:               2/ 12
 bond charge predicted
       N       E                     dE             d eps       ncg     rms          rms(c)
DAV:   1    -0.635542958467E+03   -0.25202E-01   -0.25434E+00  4680   0.113E+00    0.400E+00
RMM:   2    -0.639659136885E+03   -0.41162E+01   -0.10927E+00  4408   0.721E-01    0.161E+01
RMM:   3    -0.637575531518E+03    0.20836E+01   -0.46560E-01  4403   0.794E-01    0.198E+01
RMM:   4    -0.635869406462E+03    0.17061E+01   -0.20543E-01  4400   0.709E-01    0.769E+00
RMM:   5    -0.635648227436E+03    0.22118E+00   -0.76760E-02  4420   0.430E-01    0.662E+00
RMM:   6    -0.635522331519E+03    0.12590E+00   -0.21588E-02  4459   0.214E-01    0.481E+00
RMM:   7    -0.635500654220E+03    0.21677E-01   -0.40181E-03  4415   0.110E-01    0.390E+00
RMM:   8    -0.635499121550E+03    0.15327E-02   -0.13960E-03  4431   0.581E-02    0.281E+00
RMM:   9    -0.635512712696E+03   -0.13591E-01   -0.27838E-03  4401   0.650E-02    0.208E+00
RMM:  10    -0.635528699728E+03   -0.15987E-01   -0.46919E-03  4400   0.125E-01    0.295E+00
RMM:  11    -0.635512584700E+03    0.16115E-01   -0.98040E-04  4137   0.545E-02    0.215E+00
RMM:  12    -0.635512772762E+03   -0.18806E-03   -0.16369E-04  3870   0.208E-02    0.107E+00
RMM:  13    -0.635519668599E+03   -0.68958E-02   -0.52545E-04  3907   0.375E-02    0.499E-01
RMM:  14    -0.635525440960E+03   -0.57724E-02   -0.10140E-03  3996   0.588E-02    0.698E-01
RMM:  15    -0.635524944430E+03    0.49653E-03   -0.24986E-04  3538   0.268E-02    0.308E-01
RMM:  16    -0.635524916385E+03    0.28044E-04   -0.62268E-05  2840   0.137E-02    0.115E-01
RMM:  17    -0.635524925528E+03   -0.91424E-05   -0.60864E-05  2792   0.133E-02
   4 F= -.63552493E+03 E0= -.63547054E+03  d E =-.108781E+00
 Finite differences progress:
  Degree of freedom:   2/  6
  Displacement:        1/  2
  Total:               3/ 12
 bond charge predicted
       N       E                     dE             d eps       ncg     rms          rms(c)
DAV:   1    -0.635522758543E+03    0.21578E-02   -0.37487E+00  4560   0.120E+00    0.289E-01
RMM:   2    -0.635545801231E+03   -0.23043E-01   -0.27524E-02  4000   0.104E-01    0.420E+00
RMM:   3    -0.635502147872E+03    0.43653E-01   -0.49787E-03  4254   0.106E-01    0.873E-01
RMM:   4    -0.635526530224E+03   -0.24382E-01   -0.30785E-03  4319   0.969E-02    0.711E-01
RMM:   5    -0.635525306216E+03    0.12240E-02   -0.32750E-04  4046   0.294E-02    0.284E-01
RMM:   6    -0.635525279550E+03    0.26666E-04   -0.19500E-04  4115   0.250E-02    0.268E-01
RMM:   7    -0.635525288535E+03   -0.89844E-05   -0.65636E-05  3575   0.137E-02
   5 F= -.63552529E+03 E0= -.63547081E+03  d E =-.108954E+00
 Finite differences progress:
  Degree of freedom:   2/  6
  Displacement:        2/  2
  Total:               4/ 12
 bond charge predicted
       N       E                     dE             d eps       ncg     rms          rms(c)
DAV:   1    -0.635511987404E+03    0.13292E-01   -0.24456E+00  3520   0.121E+00    0.373E-01
RMM:   2    -0.635637224933E+03   -0.12524E+00   -0.44424E-02  3496   0.147E-01    0.708E+00
RMM:   3    -0.635462115659E+03    0.17511E+00   -0.11629E-02  3520   0.157E-01    0.115E+00
RMM:   4    -0.635516275503E+03   -0.54160E-01   -0.55751E-03  3520   0.140E-01    0.762E-01
RMM:   5    -0.635515546698E+03    0.72881E-03   -0.46756E-04  3317   0.367E-02    0.499E-01
RMM:   6    -0.635515370800E+03    0.17590E-03   -0.26289E-04  3273   0.300E-02    0.421E-01
RMM:   7    -0.635515121284E+03    0.24952E-03   -0.92785E-05  3034   0.173E-02    0.395E-01
RMM:   8    -0.635515063210E+03    0.58074E-04   -0.24666E-05  2115   0.910E-03    0.296E-01
RMM:   9    -0.635515074655E+03   -0.11445E-04   -0.39425E-05  2376   0.108E-02    0.175E-01
RMM:  10    -0.635514895157E+03    0.17950E-03   -0.76868E-05  2517   0.154E-02    0.137E-01
RMM:  11    -0.635514790752E+03    0.10441E-03   -0.92859E-05  2390   0.173E-02    0.160E-01
RMM:  12    -0.635514737920E+03    0.52832E-04   -0.26315E-05  1949   0.936E-03    0.937E-02
RMM:  13    -0.635514747485E+03   -0.95644E-05   -0.44996E-06  1554   0.362E-03
   6 F= -.63551475E+03 E0= -.63546029E+03  d E =-.108909E+00
 Finite differences progress:
  Degree of freedom:   3/  6
  Displacement:        1/  2
  Total:               5/ 12
 bond charge predicted
       N       E                     dE             d eps       ncg     rms          rms(c)
DAV:   1    -0.635532896927E+03   -0.18159E-01   -0.49459E+00  3520   0.176E+00    0.993E-01
RMM:   2    -0.636021308951E+03   -0.48841E+00   -0.86611E-02  3523   0.238E-01    0.771E+00
RMM:   3    -0.635522873020E+03    0.49844E+00   -0.50123E-02  3520   0.222E-01    0.307E+00
RMM:   4    -0.635524706782E+03   -0.18338E-02   -0.63715E-03  3520   0.141E-01    0.163E+00
RMM:   5    -0.635530402450E+03   -0.56957E-02   -0.22081E-03  3507   0.758E-02    0.484E-01
RMM:   6    -0.635535674999E+03   -0.52725E-02   -0.12449E-03  3430   0.630E-02    0.421E-01
RMM:   7    -0.635535954496E+03   -0.27950E-03   -0.81558E-04  3501   0.479E-02    0.395E-01
RMM:   8    -0.635535439437E+03    0.51506E-03   -0.19243E-04  3308   0.235E-02    0.116E-01
RMM:   9    -0.635535364464E+03    0.74973E-04   -0.12714E-04  3072   0.201E-02    0.137E-01
RMM:  10    -0.635535392217E+03   -0.27753E-04   -0.65476E-05  2542   0.133E-02    0.206E-01
RMM:  11    -0.635535307534E+03    0.84683E-04   -0.34617E-05  2253   0.108E-02    0.126E-01
RMM:  12    -0.635535290890E+03    0.16644E-04   -0.52900E-06  1826   0.531E-03    0.766E-02
RMM:  13    -0.635535304296E+03   -0.13406E-04   -0.55081E-06  1633   0.427E-03    0.259E-02
RMM:  14    -0.635535316617E+03   -0.12322E-04   -0.80721E-06  1680   0.513E-03    0.113E-02
RMM:  15    -0.635535318726E+03   -0.21083E-05   -0.33992E-06  1510   0.363E-03
   7 F= -.63553532E+03 E0= -.63548095E+03  d E =-.108731E+00
 Finite differences progress:
  Degree of freedom:   3/  6
  Displacement:        2/  2
  Total:               6/ 12
 bond charge predicted
       N       E                     dE             d eps       ncg     rms          rms(c)
DAV:   1    -0.635537419183E+03   -0.21026E-02   -0.25747E+00  3760   0.120E+00    0.369E+00
RMM:   2    -0.639007833200E+03   -0.34704E+01   -0.15456E+00  3530   0.753E-01    0.145E+01
RMM:   3    -0.637151465257E+03    0.18564E+01   -0.50932E-01  3528   0.765E-01    0.167E+01
RMM:   4    -0.635832399713E+03    0.13191E+01   -0.22527E-01  3530   0.654E-01    0.843E+00
RMM:   5    -0.635527873354E+03    0.30453E+00   -0.57924E-02  3544   0.349E-01    0.685E+00
RMM:   6    -0.635444530918E+03    0.83342E-01   -0.12322E-02  3571   0.152E-01    0.121E+00
RMM:   7    -0.635508573333E+03   -0.64042E-01   -0.61290E-03  3520   0.141E-01    0.776E-01
RMM:   8    -0.635518583744E+03   -0.10010E-01   -0.20271E-03  3519   0.736E-02    0.102E+00
RMM:   9    -0.635517250854E+03    0.13329E-02   -0.49404E-04  3541   0.329E-02    0.913E-01
RMM:  10    -0.635517147046E+03    0.10381E-03   -0.21749E-04  3125   0.199E-02    0.327E-01
RMM:  11    -0.635519071413E+03   -0.19244E-02   -0.67752E-04  3134   0.455E-02    0.881E-01
RMM:  12    -0.635519465300E+03   -0.39389E-03   -0.65557E-04  3104   0.432E-02    0.121E+00
RMM:  13    -0.635517197525E+03    0.22678E-02   -0.13010E-04  2609   0.219E-02    0.762E-01
RMM:  14    -0.635518347805E+03   -0.11503E-02   -0.17606E-04  2858   0.198E-02    0.783E-01
RMM:  15    -0.635518792482E+03   -0.44468E-03   -0.11716E-03  3082   0.582E-02    0.759E-01
RMM:  16    -0.635517604314E+03    0.11882E-02   -0.70518E-05  2305   0.142E-02    0.817E-02
RMM:  17    -0.635518335607E+03   -0.73129E-03   -0.31357E-04  2768   0.298E-02    0.896E-02
RMM:  18    -0.635518217807E+03    0.11780E-03   -0.86401E-05  2231   0.162E-02    0.329E-02
RMM:  19    -0.635518223778E+03   -0.59711E-05   -0.12995E-06  1607   0.237E-03
   8 F= -.63551822E+03 E0= -.63546385E+03  d E =-.108749E+00
 Finite differences progress:
  Degree of freedom:   4/  6
  Displacement:        1/  2
  Total:               7/ 12
 bond charge predicted
       N       E                     dE             d eps       ncg     rms          rms(c)
DAV:   1    -0.635584050420E+03   -0.65833E-01   -0.51398E+00  3680   0.159E+00    0.598E+00
RMM:   2    -0.642858619170E+03   -0.72746E+01   -0.24825E+00  3526   0.104E+00    0.207E+01
RMM:   3    -0.640925934602E+03    0.19327E+01   -0.87182E-01  3524   0.116E+00    0.285E+01
RMM:   4    -0.636491139701E+03    0.44348E+01   -0.53742E-01  3520   0.108E+00    0.102E+01
RMM:   5    -0.635902741287E+03    0.58840E+00   -0.18429E-01  3528   0.634E-01    0.820E+00
RMM:   6    -0.635606957161E+03    0.29578E+00   -0.95616E-02  3643   0.364E-01    0.643E+00
RMM:   7    -0.635516559835E+03    0.90397E-01   -0.19762E-02  3543   0.231E-01    0.496E+00
RMM:   8    -0.635510891545E+03    0.56683E-02   -0.41779E-03  3541   0.113E-01    0.471E+00
RMM:   9    -0.635502951922E+03    0.79396E-02   -0.12094E-03  3590   0.534E-02    0.418E+00
RMM:  10    -0.635494748521E+03    0.82034E-02   -0.39703E-03  3518   0.721E-02    0.185E+00
RMM:  11    -0.635589571077E+03   -0.94823E-01   -0.11493E-02  3520   0.157E-01    0.641E+00
RMM:  12    -0.635498638807E+03    0.90932E-01   -0.48291E-03  3516   0.130E-01    0.531E+00
RMM:  13    -0.635471440872E+03    0.27198E-01   -0.71755E-04  3232   0.295E-02    0.277E+00
RMM:  14    -0.635499988636E+03   -0.28548E-01   -0.18457E-03  3406   0.691E-02    0.135E+00
RMM:  15    -0.635523733691E+03   -0.23745E-01   -0.34284E-03  3497   0.111E-01    0.177E+00
RMM:  16    -0.635516438758E+03    0.72949E-02   -0.65298E-04  3227   0.491E-02    0.636E-01
RMM:  17    -0.635519934768E+03   -0.34960E-02   -0.33413E-04  2920   0.321E-02    0.872E-02
RMM:  18    -0.635520519339E+03   -0.58457E-03   -0.39192E-04  2837   0.354E-02    0.240E-01
RMM:  19    -0.635520509230E+03    0.10109E-04   -0.17442E-05  2005   0.730E-03    0.261E-01
RMM:  20    -0.635520482608E+03    0.26622E-04   -0.61726E-06  1874   0.412E-03    0.864E-02
RMM:  21    -0.635520583178E+03   -0.10057E-03   -0.39157E-05  2130   0.103E-02    0.233E-02
RMM:  22    -0.635520641985E+03   -0.58807E-04   -0.22300E-05  1928   0.825E-03    0.111E-02
RMM:  23    -0.635520668879E+03   -0.26894E-04   -0.58276E-06  1667   0.432E-03    0.302E-02
RMM:  24    -0.635520690308E+03   -0.21429E-04   -0.29612E-06  1580   0.300E-03    0.642E-02
RMM:  25    -0.635520715423E+03   -0.25116E-04   -0.32589E-06  1574   0.304E-03    0.618E-02
RMM:  26    -0.635520726164E+03   -0.10741E-04   -0.12143E-06   929   0.131E-03    0.622E-03
RMM:  27    -0.635520728304E+03   -0.21393E-05   -0.53895E-06  1407   0.374E-03
   9 F= -.63552073E+03 E0= -.63546628E+03  d E =-.108895E+00
 Finite differences progress:
  Degree of freedom:   4/  6
  Displacement:        2/  2
  Total:               8/ 12
 bond charge predicted
       N       E                     dE             d eps       ncg     rms          rms(c)
DAV:   1    -0.635540145915E+03   -0.19420E-01   -0.24859E+00  4600   0.119E+00    0.333E+00
RMM:   2    -0.638578840432E+03   -0.30387E+01   -0.12584E+00  4410   0.721E-01    0.138E+01
RMM:   3    -0.636825850427E+03    0.17530E+01   -0.43451E-01  4406   0.699E-01    0.153E+01
RMM:   4    -0.635759037836E+03    0.10668E+01   -0.18264E-01  4417   0.594E-01    0.807E+00
RMM:   5    -0.635504535832E+03    0.25450E+00   -0.44021E-02  4421   0.305E-01    0.607E+00
RMM:   6    -0.635461237122E+03    0.43299E-01   -0.82529E-03  4476   0.125E-01    0.137E+00
RMM:   7    -0.635514998158E+03   -0.53761E-01   -0.47725E-03  4402   0.121E-01    0.930E-01
RMM:   8    -0.635523806529E+03   -0.88084E-02   -0.17315E-03  4396   0.668E-02    0.667E-01
RMM:   9    -0.635525175538E+03   -0.13690E-02   -0.53168E-04  4345   0.370E-02    0.275E-01
RMM:  10    -0.635525890101E+03   -0.71456E-03   -0.42984E-04  3967   0.330E-02    0.593E-01
RMM:  11    -0.635526012246E+03   -0.12215E-03   -0.62312E-04  3882   0.406E-02    0.891E-01
RMM:  12    -0.635525391456E+03    0.62079E-03   -0.20378E-04  3694   0.251E-02    0.797E-01
RMM:  13    -0.635524801492E+03    0.58996E-03   -0.30232E-05  2710   0.912E-03    0.141E-01
RMM:  14    -0.635525623066E+03   -0.82157E-03   -0.33052E-04  3607   0.305E-02    0.718E-01
RMM:  15    -0.635525503058E+03    0.12001E-03   -0.53713E-04  3617   0.383E-02    0.628E-01
RMM:  16    -0.635524960503E+03    0.54256E-03   -0.19821E-05  2418   0.660E-03    0.138E-01
RMM:  17    -0.635525406708E+03   -0.44621E-03   -0.21507E-04  3333   0.236E-02    0.191E-01
RMM:  18    -0.635525200231E+03    0.20648E-03   -0.17933E-04  3107   0.222E-02    0.858E-02
RMM:  19    -0.635525206350E+03   -0.61193E-05   -0.21470E-06  2025   0.281E-03
  10 F= -.63552521E+03 E0= -.63547080E+03  d E =-.108823E+00
 Finite differences progress:
  Degree of freedom:   5/  6
  Displacement:        1/  2
  Total:               9/ 12
 bond charge predicted
       N       E                     dE             d eps       ncg     rms          rms(c)
DAV:   1    -0.635523507216E+03    0.16930E-02   -0.37655E+00  4560   0.121E+00    0.261E-01
RMM:   2    -0.635525212472E+03   -0.17053E-02   -0.19057E-02  3566   0.882E-02    0.209E-01
RMM:   3    -0.635541240563E+03   -0.16028E-01   -0.17514E-03  3915   0.293E-02    0.342E+00
RMM:   4    -0.635510592457E+03    0.30648E-01   -0.28653E-03  4189   0.913E-02    0.680E-01
RMM:   5    -0.635525321570E+03   -0.14729E-01   -0.20216E-03  4104   0.829E-02    0.268E-01
RMM:   6    -0.635525599354E+03   -0.27778E-03   -0.24596E-04  4085   0.279E-02    0.227E-01
RMM:   7    -0.635525330132E+03    0.26922E-03   -0.54425E-05  3550   0.122E-02    0.965E-02
RMM:   8    -0.635525245107E+03    0.85024E-04   -0.25760E-05  2604   0.104E-02    0.323E-02
RMM:   9    -0.635525248716E+03   -0.36083E-05   -0.62428E-06  2252   0.543E-03
  11 F= -.63552525E+03 E0= -.63547083E+03  d E =-.108837E+00
 Finite differences progress:
  Degree of freedom:   5/  6
  Displacement:        2/  2
  Total:              10/ 12
 bond charge predicted
       N       E                     dE             d eps       ncg     rms          rms(c)
DAV:   1    -0.635514970097E+03    0.10275E-01   -0.24391E+00  3520   0.121E+00    0.509E-01
RMM:   2    -0.635737766065E+03   -0.22280E+00   -0.45294E-02  3521   0.157E-01    0.762E+00
RMM:   3    -0.635464167258E+03    0.27360E+00   -0.18474E-02  3520   0.172E-01    0.113E+00
RMM:   4    -0.635517479128E+03   -0.53312E-01   -0.55719E-03  3520   0.142E-01    0.476E-01
RMM:   5    -0.635517796639E+03   -0.31751E-03   -0.67671E-04  3304   0.421E-02    0.581E-01
RMM:   6    -0.635517226115E+03    0.57052E-03   -0.27835E-04  3170   0.278E-02    0.411E-01
RMM:   7    -0.635517084476E+03    0.14164E-03   -0.64285E-05  2849   0.141E-02    0.270E-01
RMM:   8    -0.635517077235E+03    0.72413E-05   -0.45750E-05  2299   0.122E-02
  12 F= -.63551708E+03 E0= -.63546265E+03  d E =-.108860E+00
 Finite differences progress:
  Degree of freedom:   6/  6
  Displacement:        1/  2
  Total:              11/ 12
 bond charge predicted
       N       E                     dE             d eps       ncg     rms          rms(c)
DAV:   1    -0.635528300649E+03   -0.11216E-01   -0.49282E+00  3520   0.177E+00    0.776E-01
RMM:   2    -0.635841743161E+03   -0.31344E+00   -0.86877E-02  3522   0.229E-01    0.688E+00
RMM:   3    -0.635508091725E+03    0.33365E+00   -0.31888E-02  3521   0.183E-01    0.135E+00
RMM:   4    -0.635534558865E+03   -0.26467E-01   -0.53019E-03  3520   0.124E-01    0.938E-01
RMM:   5    -0.635534749135E+03   -0.19027E-03   -0.13477E-03  3529   0.596E-02    0.608E-01
RMM:   6    -0.635533753886E+03    0.99525E-03   -0.46929E-04  3368   0.362E-02    0.411E-01
RMM:   7    -0.635534031667E+03   -0.27778E-03   -0.73471E-04  3423   0.450E-02    0.291E-01
RMM:   8    -0.635533776679E+03    0.25499E-03   -0.23508E-04  3213   0.262E-02    0.232E-01
RMM:   9    -0.635533769528E+03    0.71516E-05   -0.10105E-04  2901   0.170E-02    0.156E-01
RMM:  10    -0.635533744989E+03    0.24539E-04   -0.58814E-05  2856   0.129E-02    0.960E-02
RMM:  11    -0.635533727631E+03    0.17358E-04   -0.25074E-05  2048   0.968E-03    0.781E-02
RMM:  12    -0.635533711477E+03    0.16155E-04   -0.19149E-05  1940   0.890E-03    0.411E-02
RMM:  13    -0.635533711583E+03   -0.10591E-06   -0.17433E-06  1583   0.295E-03
  13 F= -.63553371E+03 E0= -.63547934E+03  d E =-.108735E+00
 Finite differences progress:
  Degree of freedom:   6/  6
  Displacement:        2/  2
  Total:              12/ 12
 Finite differences POTIM=  1.500000000000000E-002
