unknown system                          
           1
    12.808532    0.000000    0.000000
     0.000000    6.470243    0.000000
     0.000000    0.000000   25.880972
   Ir   O    Ir   O 
  16  34  16  34
Direct configuration=     1
   0.12500000  0.50000000  0.18750000
   0.37500000  0.50000000  0.18750000
   0.12500000  0.00000000  0.06250000
   0.37500000  0.00000000  0.06250000
   0.00000000  0.50000000  0.06250000
   0.25000000  0.50000000  0.06250000
   0.00000000  0.00000000  0.18750000
   0.25000000  0.00000000  0.18750000
   0.12485379  0.50000000  0.43800764
   0.37452250  0.50000000  0.43867343
   0.12475721  0.00000000  0.31358560
   0.37369576  0.00000000  0.31313609
   0.99993882  0.50000000  0.31303677
   0.24981469  0.50000000  0.31298880
   0.99877300  0.00000000  0.44231523
   0.25097341  0.00000000  0.44206357
   0.00000000  0.50000000  0.13961000
   0.25000000  0.50000000  0.13961000
   0.00000000  0.00000000  0.01461000
   0.25000000  0.00000000  0.01461000
   0.12500000  0.80844000  0.18750000
   0.37500000  0.80844000  0.18750000
   0.12500000  0.30844000  0.06250000
   0.37500000  0.30844000  0.06250000
   0.00000000  0.50000000  0.23539000
   0.25000000  0.50000000  0.23539000
   0.00000000  0.00000000  0.11039000
   0.25000000  0.00000000  0.11039000
   0.12500000  0.19156000  0.18750000
   0.37500000  0.19156000  0.18750000
   0.12500000  0.69156000  0.06250000
   0.37500000  0.69156000  0.06250000
   0.99986891  0.50000000  0.38974426
   0.24981054  0.50000000  0.38961764
   0.00023579  0.00000000  0.26504881
   0.24929351  0.00000000  0.26497213
   0.12472399  0.80927020  0.43568366
   0.37554535  0.81044748  0.43922492
   0.12466626  0.30822676  0.31283733
   0.37476549  0.30820207  0.31297128
   0.00089925  0.50000000  0.48383167
   0.24887661  0.50000000  0.48380354
   0.99999434  0.00000000  0.36220260
   0.24971845  0.00000000  0.36199288
   0.12472399  0.19072980  0.43568366
   0.37554535  0.18955252  0.43922492
   0.12466626  0.69177324  0.31283733
   0.37476549  0.69179793  0.31297128
   0.24500098  0.00000000  0.51089999
   0.00444294  0.00000000  0.51116956
   0.62500000  0.50000000  0.18750000
   0.87500000  0.50000000  0.18750000
   0.62500000  0.00000000  0.06250000
   0.87500000  0.00000000  0.06250000
   0.50000000  0.50000000  0.06250000
   0.75000000  0.50000000  0.06250000
   0.50000000  0.00000000  0.18750000
   0.75000000  0.00000000  0.18750000
   0.62494236  0.50000000  0.43949639
   0.87529163  0.50000000  0.43880979
   0.62504051  0.00000000  0.31318663
   0.87615778  0.00000000  0.31327275
   0.49988084  0.50000000  0.31330363
   0.75002555  0.50000000  0.31332693
   0.50151088  0.00000000  0.43831374
   0.74842898  0.00000000  0.43875871
   0.50000000  0.50000000  0.13961000
   0.75000000  0.50000000  0.13961000
   0.50000000  0.00000000  0.01461000
   0.75000000  0.00000000  0.01461000
   0.62500000  0.80844000  0.18750000
   0.87500000  0.80844000  0.18750000
   0.62500000  0.30844000  0.06250000
   0.87500000  0.30844000  0.06250000
   0.50000000  0.50000000  0.23539000
   0.75000000  0.50000000  0.23539000
   0.50000000  0.00000000  0.11039000
   0.75000000  0.00000000  0.11039000
   0.62500000  0.19156000  0.18750000
   0.87500000  0.19156000  0.18750000
   0.62500000  0.69156000  0.06250000
   0.87500000  0.69156000  0.06250000
   0.49992674  0.50000000  0.39036267
   0.75001624  0.50000000  0.39038988
   0.49995366  0.00000000  0.26499837
   0.75016566  0.00000000  0.26499705
   0.62497616  0.80872782  0.44125040
   0.87433055  0.81033073  0.43967270
   0.62486804  0.30821655  0.31330254
   0.87531281  0.30809786  0.31308993
   0.49951346  0.50000000  0.48487600
   0.75040443  0.50000000  0.48499898
   0.49958760  0.00000000  0.36089798
   0.75042740  0.00000000  0.36109984
   0.62497616  0.19127218  0.44125040
   0.87433055  0.18966927  0.43967270
   0.62486804  0.69178345  0.31330254
   0.87531281  0.69190214  0.31308993
   0.67575982  0.00000000  0.54648253
   0.57756451  0.00000000  0.54666698
