 vasp.5.4.4.18Apr17-6-g9f103f2a35 (build Feb 25 2019 10:51:38) complex          
  
 executed on             LinuxIFC date 2022.11.21  15:41:59
 running on   40 total cores
 each image running on    8 cores
 distrk:  each k-point on    8 cores,    1 groups
 distr:  one band on NCORES_PER_BAND=   2 cores,    4 groups


--------------------------------------------------------------------------------------------------------


 INCAR:
 POTCAR:    PAW_PBE Ir 06Sep2000                  
 POTCAR:    PAW_PBE O 08Apr2002                   
 POTCAR:    PAW_PBE Ir 06Sep2000                  
 POTCAR:    PAW_PBE O 08Apr2002                   
 POTCAR:    PAW_PBE Ir 06Sep2000                  
   VRHFIN =Ir: s1d8                                                             
   LEXCH  = PE                                                                  
   EATOM  =   560.1833 eV,   41.1723 Ry                                         
                                                                                
   TITEL  = PAW_PBE Ir 06Sep2000                                                
   LULTRA =        F    use ultrasoft PP ?                                      
   IUNSCR =        1    unscreen: 0-lin 1-nonlin 2-no                           
   RPACOR =    2.250    partial core radius                                     
   POMASS =  192.220; ZVAL   =    9.000    mass and valenz                      
   RCORE  =    2.600    outmost cutoff radius                                   
   RWIGS  =    2.690; RWIGS  =    1.423    wigner-seitz radius (au A)           
   ENMAX  =  210.864; ENMIN  =  158.148 eV                                      
   RCLOC  =    1.857    cutoff for local pot                                    
   LCOR   =        T    correct aug charges                                     
   LPAW   =        T    paw PP                                                  
   EAUG   =  318.962                                                            
   DEXC   =    0.000                                                            
   RMAX   =    2.667    core radius for proj-oper                               
   RAUG   =    1.300    factor for augmentation sphere                          
   RDEP   =    2.748    radius for radial grids                                 
   RDEPT  =    2.300    core radius for aug-charge                              
                                                                                
   Atomic configuration                                                         
   16 entries                                                                   
     n  l   j            E        occ.                                          
     1  0  0.50    -76100.0449   2.0000                                         
     2  0  0.50    -13308.1683   2.0000                                         
     2  1  1.50    -11558.0021   6.0000                                         
     3  0  0.50     -3110.7274   2.0000                                         
     3  1  1.50     -2599.2109   6.0000                                         
     3  2  2.50     -2037.1515  10.0000                                         
     4  0  0.50      -661.6001   2.0000                                         
     4  1  1.50      -493.8981   6.0000                                         
     4  2  2.50      -288.1909  10.0000                                         
     4  3  3.50       -59.5718  14.0000                                         
     5  0  0.50       -95.3879   2.0000                                         
     5  1  1.50       -52.2747   6.0000                                         
     5  2  2.50        -5.4180   8.0000                                         
     6  0  0.50        -5.5479   1.0000                                         
     6  1  1.50        -6.8029   0.0000                                         
     5  3  2.50        -1.3606   0.0000                                         
   Description                                                                  
     l       E           TYP  RCUT    TYP  RCUT                                 
     2     -5.4179967     23  2.600                                             
     2     -6.7785793     23  2.600                                             
     0     -5.5478636     23  2.600                                             
     0      2.2542272     23  2.600                                             
     1     -2.7211652     23  2.600                                             
     1     20.4087390     23  2.600                                             
  local pseudopotential read in
  partial core-charges read in
  partial kinetic energy density read in
  atomic valenz-charges read in
  non local Contribution for L=           2  read in
    real space projection operators read in
  non local Contribution for L=           2  read in
    real space projection operators read in
  non local Contribution for L=           0  read in
    real space projection operators read in
  non local Contribution for L=           0  read in
    real space projection operators read in
  non local Contribution for L=           1  read in
    real space projection operators read in
  non local Contribution for L=           1  read in
    real space projection operators read in
    PAW grid and wavefunctions read in
 
   number of l-projection  operators is LMAX  =           6
   number of lm-projection operators is LMMAX =          18
 
 POTCAR:    PAW_PBE O 08Apr2002                   
   VRHFIN =O: s2p4                                                              
   LEXCH  = PE                                                                  
   EATOM  =   432.3788 eV,   31.7789 Ry                                         
                                                                                
   TITEL  = PAW_PBE O 08Apr2002                                                 
   LULTRA =        F    use ultrasoft PP ?                                      
   IUNSCR =        1    unscreen: 0-lin 1-nonlin 2-no                           
   RPACOR =    1.200    partial core radius                                     
   POMASS =   16.000; ZVAL   =    6.000    mass and valenz                      
   RCORE  =    1.520    outmost cutoff radius                                   
   RWIGS  =    1.550; RWIGS  =    0.820    wigner-seitz radius (au A)           
   ENMAX  =  400.000; ENMIN  =  300.000 eV                                      
   ICORE  =        2    local potential                                         
   LCOR   =        T    correct aug charges                                     
   LPAW   =        T    paw PP                                                  
   EAUG   =  605.392                                                            
   DEXC   =    0.000                                                            
   RMAX   =    1.553    core radius for proj-oper                               
   RAUG   =    1.300    factor for augmentation sphere                          
   RDEP   =    1.550    radius for radial grids                                 
   RDEPT  =    1.329    core radius for aug-charge                              
                                                                                
   Atomic configuration                                                         
    4 entries                                                                   
     n  l   j            E        occ.                                          
     1  0  0.50      -514.6923   2.0000                                         
     2  0  0.50       -23.9615   2.0000                                         
     2  1  0.50        -9.0305   4.0000                                         
     3  2  1.50        -9.5241   0.0000                                         
   Description                                                                  
     l       E           TYP  RCUT    TYP  RCUT                                 
     0    -23.9615318     23  1.200                                             
     0     -9.5240782     23  1.200                                             
     1     -9.0304911     23  1.520                                             
     1      8.1634956     23  1.520                                             
     2     -9.5240782      7  1.500                                             
  local pseudopotential read in
  partial core-charges read in
  partial kinetic energy density read in
  kinetic energy density of atom read in
  atomic valenz-charges read in
  non local Contribution for L=           0  read in
    real space projection operators read in
  non local Contribution for L=           0  read in
    real space projection operators read in
  non local Contribution for L=           1  read in
    real space projection operators read in
  non local Contribution for L=           1  read in
    real space projection operators read in
    PAW grid and wavefunctions read in
 
   number of l-projection  operators is LMAX  =           4
   number of lm-projection operators is LMMAX =           8
 
 POTCAR:    PAW_PBE Ir 06Sep2000                  
   VRHFIN =Ir: s1d8                                                             
   LEXCH  = PE                                                                  
   EATOM  =   560.1833 eV,   41.1723 Ry                                         
                                                                                
   TITEL  = PAW_PBE Ir 06Sep2000                                                
   LULTRA =        F    use ultrasoft PP ?                                      
   IUNSCR =        1    unscreen: 0-lin 1-nonlin 2-no                           
   RPACOR =    2.250    partial core radius                                     
   POMASS =  192.220; ZVAL   =    9.000    mass and valenz                      
   RCORE  =    2.600    outmost cutoff radius                                   
   RWIGS  =    2.690; RWIGS  =    1.423    wigner-seitz radius (au A)           
   ENMAX  =  210.864; ENMIN  =  158.148 eV                                      
   RCLOC  =    1.857    cutoff for local pot                                    
   LCOR   =        T    correct aug charges                                     
   LPAW   =        T    paw PP                                                  
   EAUG   =  318.962                                                            
   DEXC   =    0.000                                                            
   RMAX   =    2.667    core radius for proj-oper                               
   RAUG   =    1.300    factor for augmentation sphere                          
   RDEP   =    2.748    radius for radial grids                                 
   RDEPT  =    2.300    core radius for aug-charge                              
                                                                                
   Atomic configuration                                                         
   16 entries                                                                   
     n  l   j            E        occ.                                          
     1  0  0.50    -76100.0449   2.0000                                         
     2  0  0.50    -13308.1683   2.0000                                         
     2  1  1.50    -11558.0021   6.0000                                         
     3  0  0.50     -3110.7274   2.0000                                         
     3  1  1.50     -2599.2109   6.0000                                         
     3  2  2.50     -2037.1515  10.0000                                         
     4  0  0.50      -661.6001   2.0000                                         
     4  1  1.50      -493.8981   6.0000                                         
     4  2  2.50      -288.1909  10.0000                                         
     4  3  3.50       -59.5718  14.0000                                         
     5  0  0.50       -95.3879   2.0000                                         
     5  1  1.50       -52.2747   6.0000                                         
     5  2  2.50        -5.4180   8.0000                                         
     6  0  0.50        -5.5479   1.0000                                         
     6  1  1.50        -6.8029   0.0000                                         
     5  3  2.50        -1.3606   0.0000                                         
   Description                                                                  
     l       E           TYP  RCUT    TYP  RCUT                                 
     2     -5.4179967     23  2.600                                             
     2     -6.7785793     23  2.600                                             
     0     -5.5478636     23  2.600                                             
     0      2.2542272     23  2.600                                             
     1     -2.7211652     23  2.600                                             
     1     20.4087390     23  2.600                                             
  local pseudopotential read in
  partial core-charges read in
  partial kinetic energy density read in
  atomic valenz-charges read in
  non local Contribution for L=           2  read in
    real space projection operators read in
  non local Contribution for L=           2  read in
    real space projection operators read in
  non local Contribution for L=           0  read in
    real space projection operators read in
  non local Contribution for L=           0  read in
    real space projection operators read in
  non local Contribution for L=           1  read in
    real space projection operators read in
  non local Contribution for L=           1  read in
    real space projection operators read in
    PAW grid and wavefunctions read in
 
   number of l-projection  operators is LMAX  =           6
   number of lm-projection operators is LMMAX =          18
 
 POTCAR:    PAW_PBE O 08Apr2002                   
   VRHFIN =O: s2p4                                                              
   LEXCH  = PE                                                                  
   EATOM  =   432.3788 eV,   31.7789 Ry                                         
                                                                                
   TITEL  = PAW_PBE O 08Apr2002                                                 
   LULTRA =        F    use ultrasoft PP ?                                      
   IUNSCR =        1    unscreen: 0-lin 1-nonlin 2-no                           
   RPACOR =    1.200    partial core radius                                     
   POMASS =   16.000; ZVAL   =    6.000    mass and valenz                      
   RCORE  =    1.520    outmost cutoff radius                                   
   RWIGS  =    1.550; RWIGS  =    0.820    wigner-seitz radius (au A)           
   ENMAX  =  400.000; ENMIN  =  300.000 eV                                      
   ICORE  =        2    local potential                                         
   LCOR   =        T    correct aug charges                                     
   LPAW   =        T    paw PP                                                  
   EAUG   =  605.392                                                            
   DEXC   =    0.000                                                            
   RMAX   =    1.553    core radius for proj-oper                               
   RAUG   =    1.300    factor for augmentation sphere                          
   RDEP   =    1.550    radius for radial grids                                 
   RDEPT  =    1.329    core radius for aug-charge                              
                                                                                
   Atomic configuration                                                         
    4 entries                                                                   
     n  l   j            E        occ.                                          
     1  0  0.50      -514.6923   2.0000                                         
     2  0  0.50       -23.9615   2.0000                                         
     2  1  0.50        -9.0305   4.0000                                         
     3  2  1.50        -9.5241   0.0000                                         
   Description                                                                  
     l       E           TYP  RCUT    TYP  RCUT                                 
     0    -23.9615318     23  1.200                                             
     0     -9.5240782     23  1.200                                             
     1     -9.0304911     23  1.520                                             
     1      8.1634956     23  1.520                                             
     2     -9.5240782      7  1.500                                             
  local pseudopotential read in
  partial core-charges read in
  partial kinetic energy density read in
  kinetic energy density of atom read in
  atomic valenz-charges read in
  non local Contribution for L=           0  read in
    real space projection operators read in
  non local Contribution for L=           0  read in
    real space projection operators read in
  non local Contribution for L=           1  read in
    real space projection operators read in
  non local Contribution for L=           1  read in
    real space projection operators read in
    PAW grid and wavefunctions read in
 
   number of l-projection  operators is LMAX  =           4
   number of lm-projection operators is LMMAX =           8
 
 Optimization of the real space projectors (new method)

 maximal supplied QI-value         = 14.36
 optimisation between [QCUT,QGAM] = [ 11.35, 22.84] = [ 36.05,146.02] Ry 
 Optimized for a Real-space Cutoff    1.52 Angstroem

   l    n(q)    QCUT    max X(q) W(low)/X(q) W(high)/X(q)  e(spline) 
   2      9    11.346   134.116    0.47E-03    0.13E-03    0.92E-06
   2      9    11.346   130.192    0.47E-03    0.13E-03    0.92E-06
   0     10    11.346    60.310    0.74E-04    0.13E-03    0.69E-06
   0     10    11.346    39.218    0.68E-04    0.12E-03    0.65E-06
   1     10    11.346    18.439    0.15E-03    0.34E-04    0.20E-06
   1     10    11.346    12.760    0.12E-03    0.31E-04    0.16E-06
 Optimization of the real space projectors (new method)

 maximal supplied QI-value         = 24.76
 optimisation between [QCUT,QGAM] = [ 11.39, 22.77] = [ 36.31,145.25] Ry 
 Optimized for a Real-space Cutoff    1.00 Angstroem

   l    n(q)    QCUT    max X(q) W(low)/X(q) W(high)/X(q)  e(spline) 
   0      7    11.387    20.381    0.39E-03    0.13E-02    0.15E-06
   0      7    11.387    15.268    0.42E-03    0.14E-02    0.17E-06
   1      6    11.387     5.964    0.41E-03    0.11E-02    0.17E-06
   1      6    11.387     5.382    0.39E-03    0.87E-03    0.15E-06
 Optimization of the real space projectors (new method)

 maximal supplied QI-value         = 14.36
 optimisation between [QCUT,QGAM] = [ 11.35, 22.84] = [ 36.05,146.02] Ry 
 Optimized for a Real-space Cutoff    1.52 Angstroem

   l    n(q)    QCUT    max X(q) W(low)/X(q) W(high)/X(q)  e(spline) 
   2      9    11.346   134.116    0.47E-03    0.13E-03    0.92E-06
   2      9    11.346   130.192    0.47E-03    0.13E-03    0.92E-06
   0     10    11.346    60.310    0.74E-04    0.13E-03    0.69E-06
   0     10    11.346    39.218    0.68E-04    0.12E-03    0.65E-06
   1     10    11.346    18.439    0.15E-03    0.34E-04    0.20E-06
   1     10    11.346    12.760    0.12E-03    0.31E-04    0.16E-06
 Optimization of the real space projectors (new method)

 maximal supplied QI-value         = 24.76
 optimisation between [QCUT,QGAM] = [ 11.39, 22.77] = [ 36.31,145.25] Ry 
 Optimized for a Real-space Cutoff    1.00 Angstroem

   l    n(q)    QCUT    max X(q) W(low)/X(q) W(high)/X(q)  e(spline) 
   0      7    11.387    20.381    0.39E-03    0.13E-02    0.15E-06
   0      7    11.387    15.268    0.42E-03    0.14E-02    0.17E-06
   1      6    11.387     5.964    0.41E-03    0.11E-02    0.17E-06
   1      6    11.387     5.382    0.39E-03    0.87E-03    0.15E-06

 ----------------------------------------------------------------------------- 
|                                                                             |
|  ADVICE TO THIS USER RUNNING 'VASP/VAMP'   (HEAR YOUR MASTER'S VOICE ...):  |
|                                                                             |
|      You enforced a specific xc-type in the INCAR file,                     |
|      a different type was found on the POTCAR file                          |
|          I HOPE YOU KNOW, WHAT YOU ARE  DOING                               |
|                                                                             |
 ----------------------------------------------------------------------------- 

  PAW_PBE Ir 06Sep2000                  :
 energy of atom  1       EATOM= -560.1833
 kinetic energy error for atom=    0.0018 (will be added to EATOM!!)
  PAW_PBE O 08Apr2002                   :
 energy of atom  2       EATOM= -432.3788
 kinetic energy error for atom=    0.0224 (will be added to EATOM!!)
  PAW_PBE Ir 06Sep2000                  :
 energy of atom  3       EATOM= -560.1833
 kinetic energy error for atom=    0.0018 (will be added to EATOM!!)
  PAW_PBE O 08Apr2002                   :
 energy of atom  4       EATOM= -432.3788
 kinetic energy error for atom=    0.0224 (will be added to EATOM!!)
 
 
 POSCAR: Ir  O Ir  O                             
  positions in cartesian coordinates
  No initial velocities read in
 exchange correlation table for  LEXCH =        9
   RHO(1)=    0.500       N(1)  =     2000
   RHO(2)=  100.500       N(2)  =     4000

 VTST: version 3.2, (02/03/18)

 CHAIN: initializing optimizer
 
 OPT: Using VASP QUASI-newton optimizer
 CHAIN: Read ICHAIN            0
 CHAIN: Running the NEB
 NEB:          SPRING     -5.000000
 NEB:          LCLIMB      T
 NEB:     LTANGENTOLD      F
 NEB:           LDNEB      F
 NEB:        LDNEBORG      F
 NEB:        LNEBCELL      F
 NEB:          EFIRST      0.000000
 NEB:           ELAST      0.000000
 
 POSCAR: Ir  O Ir  O                             
  positions in cartesian coordinates
  No initial velocities read in
 
 POSCAR: Ir  O Ir  O                             
  positions in cartesian coordinates
  No initial velocities read in
 


--------------------------------------------------------------------------------------------------------


 ion  position               nearest neighbor table
   1  0.125  0.500  0.188-  21 2.00  29 2.00  17 2.02  25 2.02  26 2.02  18 2.02   2 3.20  52 3.20

   2  0.375  0.500  0.188-  22 2.00  30 2.00  26 2.02  18 2.02  67 2.02  75 2.02   1 3.20  51 3.20

   3  0.125  0.000  0.062-  23 2.00  31 2.00  19 2.02  27 2.02  28 2.02  20 2.02   4 3.20  54 3.20

   4  0.375  0.000  0.062-  24 2.00  32 2.00  28 2.02  20 2.02  69 2.02  77 2.02   3 3.20  53 3.20

   5  0.000  0.500  0.062-  17 2.00  23 2.02  31 2.02  74 2.02  82 2.02   6 3.20  56 3.20
   6  0.250  0.500  0.062-  18 2.00  23 2.02  24 2.02  31 2.02  32 2.02   5 3.20  55 3.20
   7  0.000  0.000  0.188-  27 2.00  35 2.00  29 2.02  21 2.02  72 2.02  80 2.02   8 3.20  58 3.20

   8  0.250  0.000  0.188-  28 2.00  36 2.00  21 2.02  29 2.02  30 2.02  22 2.02   7 3.20  57 3.20

   9  0.125  0.500  0.438-  42 1.99  41 1.99  37 2.00  45 2.00  33 2.03  34 2.03  60 3.20  10 3.20

  10  0.375  0.500  0.438-  42 1.99  91 1.99  46 2.00  38 2.00  83 2.04  34 2.04  59 3.20   9 3.20

  11  0.125  0.000  0.313-  39 1.99  47 1.99  35 2.03  36 2.03  44 2.03  43 2.03  62 3.20  12 3.20

  12  0.375  0.000  0.313-  40 1.99  48 1.99  93 2.02  36 2.02  44 2.02  85 2.03  11 3.20  61 3.21

  13  0.000  0.500  0.313-  33 1.98  25 2.01  90 2.03  98 2.03  39 2.03  47 2.03  14 3.20  64 3.20

  14  0.250  0.500  0.313-  34 1.99  26 2.01  40 2.03  48 2.03  47 2.03  39 2.03  13 3.20  63 3.20

  15  1.000  0.000  0.441-  50 1.80  45 2.03  37 2.03  88 2.04  96 2.04  43 2.08  16 3.21  66 3.22

  16  0.251  0.000  0.442-  49 1.80  46 2.03  38 2.03  37 2.03  45 2.03  44 2.09  15 3.21  65 3.22

  17  0.000  0.500  0.140-   5 2.00   1 2.02  52 2.02
  18  0.250  0.500  0.140-   6 2.00   2 2.02   1 2.02
  19  0.000  0.000  0.015-   3 2.02  54 2.02
  20  0.250  0.000  0.015-   3 2.02   4 2.02
  21  0.125  0.808  0.188-   1 2.00   7 2.02   8 2.02
  22  0.375  0.808  0.188-   2 2.00   8 2.02  57 2.02
  23  0.125  0.308  0.062-   3 2.00   5 2.02   6 2.02
  24  0.375  0.308  0.062-   4 2.00   6 2.02  55 2.02
  25  0.000  0.500  0.235-  13 2.01   1 2.02  52 2.02
  26  0.250  0.500  0.235-  14 2.01   2 2.02   1 2.02
  27  0.000  0.000  0.110-   7 2.00   3 2.02  54 2.02
  28  0.250  0.000  0.110-   8 2.00   4 2.02   3 2.02
  29  0.125  0.192  0.188-   1 2.00   7 2.02   8 2.02
  30  0.375  0.192  0.188-   2 2.00   8 2.02  57 2.02
  31  0.125  0.692  0.062-   3 2.00   5 2.02   6 2.02
  32  0.375  0.692  0.062-   4 2.00   6 2.02  55 2.02
  33  1.000  0.500  0.390-  13 1.98   9 2.03  60 2.04
  34  0.250  0.500  0.390-  14 1.99   9 2.03  10 2.04
  35  0.000  0.000  0.265-   7 2.00  62 2.02  11 2.03
  36  0.250  0.000  0.265-   8 2.00  12 2.02  11 2.03
  37  0.125  0.809  0.436-   9 2.00  15 2.03  16 2.03
  38  0.376  0.809  0.438-  10 2.00  65 2.03  16 2.03
  39  0.125  0.308  0.313-  11 1.99  13 2.03  14 2.03
  40  0.375  0.308  0.312-  12 1.99  63 2.03  14 2.03
  41  1.000  0.500  0.484-  60 1.98   9 1.99
  42  0.250  0.500  0.484-  10 1.99   9 1.99
  43  1.000  0.000  0.361-  62 2.03  11 2.03  15 2.08
  44  0.250  0.000  0.361-  12 2.02  11 2.03  16 2.09
  45  0.125  0.191  0.436-   9 2.00  15 2.03  16 2.03
  46  0.376  0.191  0.438-  10 2.00  65 2.03  16 2.03
  47  0.125  0.692  0.313-  11 1.99  13 2.03  14 2.03
  48  0.375  0.692  0.312-  12 1.99  63 2.03  14 2.03
  49  0.249  0.000  0.511-  16 1.80
  50  0.001  0.000  0.511-  15 1.80
  51  0.625  0.500  0.188-  71 2.00  79 2.00  67 2.02  75 2.02  76 2.02  68 2.02   2 3.20  52 3.20

  52  0.875  0.500  0.188-  72 2.00  80 2.00  68 2.02  17 2.02  76 2.02  25 2.02   1 3.20  51 3.20

  53  0.625  0.000  0.062-  73 2.00  81 2.00  69 2.02  77 2.02  78 2.02  70 2.02   4 3.20  54 3.20

  54  0.875  0.000  0.062-  74 2.00  82 2.00  70 2.02  19 2.02  78 2.02  27 2.02   3 3.20  53 3.20

  55  0.500  0.500  0.062-  67 2.00  32 2.02  24 2.02  73 2.02  81 2.02  56 3.20   6 3.20
  56  0.750  0.500  0.062-  68 2.00  73 2.02  74 2.02  81 2.02  82 2.02  55 3.20   5 3.20
  57  0.500  0.000  0.188-  77 2.00  85 2.00  71 2.02  22 2.02  79 2.02  30 2.02   8 3.20  58 3.20

  58  0.750  0.000  0.188-  78 2.00  86 2.00  71 2.02  79 2.02  80 2.02  72 2.02   7 3.20  57 3.20

  59  0.625  0.500  0.437-  91 1.98  92 1.99  87 1.99  95 1.99  83 2.03  84 2.03  60 3.20  10 3.20

  60  0.875  0.500  0.438-  41 1.98  92 1.99  88 2.00  96 2.00  84 2.04  33 2.04  59 3.20   9 3.20

  61  0.625  0.000  0.313-  89 1.99  97 1.99  85 2.02  86 2.03  94 2.03  93 2.04  12 3.21  62 3.21

  62  0.875  0.000  0.313-  90 1.99  98 1.99  94 2.01  35 2.02  43 2.03  86 2.03  11 3.20  61 3.21

  63  0.500  0.500  0.313-  83 1.98  75 2.00  40 2.03  48 2.03  89 2.03  97 2.03  14 3.20  64 3.21

  64  0.750  0.500  0.313-  84 1.98  76 2.00  90 2.03  98 2.03  97 2.03  89 2.03  13 3.20  63 3.21

  65  0.502  0.000  0.440- 100 1.84  95 2.02  87 2.02  46 2.03  38 2.03  93 2.06  66 3.15  16 3.22

  66  0.748  0.000  0.440-  99 1.84  95 2.02  87 2.02  96 2.03  88 2.03  94 2.06  65 3.15  15 3.22

  67  0.500  0.500  0.140-  55 2.00  51 2.02   2 2.02
  68  0.750  0.500  0.140-  56 2.00  52 2.02  51 2.02
  69  0.500  0.000  0.015-   4 2.02  53 2.02
  70  0.750  0.000  0.015-  53 2.02  54 2.02
  71  0.625  0.808  0.188-  51 2.00  57 2.02  58 2.02
  72  0.875  0.808  0.188-  52 2.00   7 2.02  58 2.02
  73  0.625  0.308  0.062-  53 2.00  55 2.02  56 2.02
  74  0.875  0.308  0.062-  54 2.00   5 2.02  56 2.02
  75  0.500  0.500  0.235-  63 2.00  51 2.02   2 2.02
  76  0.750  0.500  0.235-  64 2.00  52 2.02  51 2.02
  77  0.500  0.000  0.110-  57 2.00  53 2.02   4 2.02
  78  0.750  0.000  0.110-  58 2.00  54 2.02  53 2.02
  79  0.625  0.192  0.188-  51 2.00  57 2.02  58 2.02
  80  0.875  0.192  0.188-  52 2.00   7 2.02  58 2.02
  81  0.625  0.692  0.062-  53 2.00  55 2.02  56 2.02
  82  0.875  0.692  0.062-  54 2.00   5 2.02  56 2.02
  83  0.499  0.500  0.389-  63 1.98  59 2.03  10 2.04
  84  0.751  0.500  0.389-  64 1.98  59 2.03  60 2.04
  85  0.500  0.000  0.265-  57 2.00  61 2.02  12 2.03
  86  0.750  0.000  0.265-  58 2.00  61 2.03  62 2.03
  87  0.625  0.807  0.433-  59 1.99  66 2.02  65 2.02
  88  0.874  0.809  0.437-  60 2.00  66 2.03  15 2.04
  89  0.625  0.308  0.312-  61 1.99  63 2.03  64 2.03
  90  0.875  0.308  0.312-  62 1.99  13 2.03  64 2.03
  91  0.501  0.500  0.483-  59 1.98  10 1.99
  92  0.749  0.500  0.483-  59 1.99  60 1.99
  93  0.499  0.000  0.361-  12 2.02  61 2.04  65 2.06
  94  0.751  0.000  0.360-  62 2.01  61 2.03  66 2.06
  95  0.625  0.193  0.433-  59 1.99  66 2.02  65 2.02
  96  0.874  0.191  0.437-  60 2.00  66 2.03  15 2.04
  97  0.625  0.692  0.312-  61 1.99  63 2.03  64 2.03
  98  0.875  0.692  0.312-  62 1.99  13 2.03  64 2.03
  99  0.727  0.000  0.511-  66 1.84
 100  0.524  0.000  0.510-  65 1.84
 
  LATTYP: Found a simple orthorhombic cell.
 ALAT       =     6.4702430000
 B/A-ratio  =     1.9796060210
 C/A-ratio  =     4.0000000000
  
  Lattice vectors:
  
 A1 = (   0.0000000000,  -6.4702430000,   0.0000000000)
 A2 = ( -12.8085320000,   0.0000000000,   0.0000000000)
 A3 = (   0.0000000000,   0.0000000000, -25.8809720000)


Analysis of symmetry for initial positions (statically):
=====================================================================
 Subroutine PRICEL returns:
 Original cell was already a primitive cell.
 

 Routine SETGRP: Setting up the symmetry group for a 
 simple orthorhombic supercell.


 Subroutine GETGRP returns: Found  2 space group operations
 (whereof  2 operations were pure point group operations)
 out of a pool of  8 trial point group operations.


The static configuration has the point symmetry C_1h.


Analysis of symmetry for dynamics (positions and initial velocities):
=====================================================================
 Subroutine PRICEL returns:
 Original cell was already a primitive cell.
 

 Routine SETGRP: Setting up the symmetry group for a 
 simple orthorhombic supercell.


 Subroutine GETGRP returns: Found  2 space group operations
 (whereof  2 operations were pure point group operations)
 out of a pool of  8 trial point group operations.


The dynamic configuration has the point symmetry C_1h.


Analysis of constrained symmetry for selective dynamics:
=====================================================================
 Subroutine PRICEL returns:
 Original cell was already a primitive cell.
 

 Routine SETGRP: Setting up the symmetry group for a 
 simple orthorhombic supercell.


 Subroutine GETGRP returns: Found  2 space group operations
 (whereof  2 operations were pure point group operations)
 out of a pool of  8 trial point group operations.


The constrained configuration has the point symmetry C_1h.


Analysis of structural, dynamic, and magnetic symmetry:
=====================================================================
 Subroutine PRICEL returns:
 Original cell was already a primitive cell.
 

 Routine SETGRP: Setting up the symmetry group for a 
 simple orthorhombic supercell.


 Subroutine GETGRP returns: Found  2 space group operations
 (whereof  2 operations were pure point group operations)
 out of a pool of  8 trial point group operations.


The magnetic configuration has the point symmetry C_1h.


 Subroutine INISYM returns: Found  2 space group operations
 (whereof  2 operations are pure point group operations),
 and found     1 'primitive' translations

 
 
 KPOINTS: Automatic mesh                          

Automatic generation of k-mesh.
Space group operators:
 irot       det(A)        alpha          n_x          n_y          n_z        tau_x        tau_y        tau_z
    1     1.000000     0.000001     1.000000     0.000000     0.000000     0.000000     0.000000     0.000000
    2    -1.000000   180.000000     0.000000     1.000000     0.000000     0.000000     0.000000     0.000000
 
 Subroutine IBZKPT returns following result:
 ===========================================
 
 Found      4 irreducible k-points:
 
 Following reciprocal coordinates:
            Coordinates               Weight
  0.000000  0.000000  0.000000      1.000000
  0.333333  0.000000  0.000000      2.000000
  0.000000  0.333333  0.000000      2.000000
  0.333333  0.333333  0.000000      4.000000
 
 Following cartesian coordinates:
            Coordinates               Weight
  0.000000  0.000000  0.000000      1.000000
  0.026024  0.000000  0.000000      2.000000
  0.000000  0.051518  0.000000      2.000000
  0.026024  0.051518  0.000000      4.000000
 


--------------------------------------------------------------------------------------------------------




 Dimension of arrays:
   k-points           NKPTS =      4   k-points in BZ     NKDIM =      4   number of bands    NBANDS=    448
   number of dos      NEDOS =    301   number of ions     NIONS =    100
   non local maximal  LDIM  =      6   non local SUM 2l+1 LMDIM =     18
   total plane-waves  NPLWV = 362880
   max r-space proj   IRMAX =   2532   max aug-charges    IRDMAX=  12432
   dimension x,y,z NGX =    70 NGY =   36 NGZ =  144
   dimension x,y,z NGXF=   140 NGYF=   72 NGZF=  288
   support grid    NGXF=   140 NGYF=   72 NGZF=  288
   ions per type =              16  34  16  34
   NGX,Y,Z   is equivalent  to a cutoff of   9.09,  9.25,  9.25 a.u.
   NGXF,Y,Z  is equivalent  to a cutoff of  18.17, 18.50, 18.50 a.u.

 SYSTEM =  unknown system                          
 POSCAR =  Ir  O Ir  O                             

 Startparameter for this run:
   NWRITE =      2    write-flag & timer
   PREC   = normal    normal or accurate (medium, high low for compatibility)
   ISTART =      0    job   : 0-new  1-cont  2-samecut
   ICHARG =      2    charge: 1-file 2-atom 10-const
   ISPIN  =      2    spin polarized calculation?
   LNONCOLLINEAR =      F non collinear calculations
   LSORBIT =      F    spin-orbit coupling
   INIWAV =      1    electr: 0-lowe 1-rand  2-diag
   LASPH  =      F    aspherical Exc in radial PAW
   METAGGA=      F    non-selfconsistent MetaGGA calc.

 Electronic Relaxation 1
   ENCUT  =  500.0 eV  36.75 Ry    6.06 a.u.  23.35 11.80 47.19*2*pi/ulx,y,z
   ENINI  =  500.0     initial cutoff
   ENAUG  =  605.4 eV  augmentation charge cutoff
   NELM   =     60;   NELMIN=  4; NELMDL= -5     # of ELM steps 
   EDIFF  = 0.1E-04   stopping-criterion for ELM
   LREAL  =      T    real-space projection
   NLSPLINE    = F    spline interpolate recip. space projectors
   LCOMPAT=      F    compatible to vasp.4.4
   GGA_COMPAT  = T    GGA compatible to vasp.4.4-vasp.4.6
   LMAXPAW     = -100 max onsite density
   LMAXMIX     =    2 max onsite mixed and CHGCAR
   VOSKOWN=      0    Vosko Wilk Nusair interpolation
   ROPT   =   -0.00050  -0.00050  -0.00050  -0.00050
 Ionic relaxation
   EDIFFG = -.5E-01   stopping-criterion for IOM
   NSW    =    500    number of steps for IOM
   NBLOCK =      1;   KBLOCK =    500    inner block; outer block 
   IBRION =      1    ionic relax: 0-MD 1-quasi-New 2-CG
   NFREE  =      0    steps in history (QN), initial steepest desc. (CG)
   ISIF   =      2    stress and relaxation
   IWAVPR =     11    prediction:  0-non 1-charg 2-wave 3-comb
   ISYM   =      2    0-nonsym 1-usesym 2-fastsym
   LCORR  =      T    Harris-Foulkes like correction to forces

   POTIM  = 0.5000    time-step for ionic-motion
   TEIN   =    0.0    initial temperature
   TEBEG  =    0.0;   TEEND  =   0.0 temperature during run
   SMASS  =  -3.00    Nose mass-parameter (am)
   estimated Nose-frequenzy (Omega)   =  0.10E-29 period in steps =****** mass=  -0.375E-26a.u.
   SCALEE = 1.0000    scale energy and forces
   NPACO  =    256;   APACO  = 16.0  distance and # of slots for P.C.
   PSTRESS=    0.0 pullay stress

  Mass of Ions in am
   POMASS = 192.22 16.00192.22 16.00
  Ionic Valenz
   ZVAL   =   9.00  6.00  9.00  6.00
  Atomic Wigner-Seitz radii
   RWIGS  =  -1.00 -1.00 -1.00 -1.00
  virtual crystal weights 
   VCA    =   1.00  1.00  1.00  1.00
   NELECT =     696.0000    total number of electrons
   NUPDOWN=      -1.0000    fix difference up-down

 DOS related values:
   EMIN   =  10.00;   EMAX   =-10.00  energy-range for DOS
   EFERMI =   0.00
   ISMEAR =     0;   SIGMA  =   0.05  broadening in eV -4-tet -1-fermi 0-gaus

 Electronic relaxation 2 (details)
   IALGO  =     68    algorithm
   LDIAG  =      T    sub-space diagonalisation (order eigenvalues)
   LSUBROT=      F    optimize rotation matrix (better conditioning)
   TURBO    =      0    0=normal 1=particle mesh
   IRESTART =      0    0=no restart 2=restart with 2 vectors
   NREBOOT  =      0    no. of reboots
   NMIN     =      0    reboot dimension
   EREF     =   0.00    reference energy to select bands
   IMIX   =      4    mixing-type and parameters
     AMIX     =   0.40;   BMIX     =  1.00
     AMIX_MAG =   1.60;   BMIX_MAG =  1.00
     AMIN     =   0.10
     WC   =   100.;   INIMIX=   1;  MIXPRE=   1;  MAXMIX= -45

 Intra band minimization:
   WEIMIN = 0.0010     energy-eigenvalue tresh-hold
   EBREAK =  0.56E-08  absolut break condition
   DEPER  =   0.30     relativ break condition  

   TIME   =   0.40     timestep for ELM

  volume/ion in A,a.u.               =      21.45       144.74
  Fermi-wavevector in a.u.,A,eV,Ry     =   1.124979  2.125902 17.219229  1.265578
  Thomas-Fermi vector in A             =   2.261654
 
 Write flags
   LWAVE        =      F    write WAVECAR
   LDOWNSAMPLE  =      F    k-point downsampling of WAVECAR
   LCHARG       =      F    write CHGCAR
   LVTOT        =      F    write LOCPOT, total local potential
   LVHAR        =      F    write LOCPOT, Hartree potential only
   LELF         =      F    write electronic localiz. function (ELF)
   LORBIT       =      0    0 simple, 1 ext, 2 COOP (PROOUT), +10 PAW based schemes


 Dipole corrections
   LMONO  =      F    monopole corrections only (constant potential shift)
   LDIPOL =      F    correct potential (dipole corrections)
   IDIPOL =      0    1-x, 2-y, 3-z, 4-all directions 
   EPSILON=  1.0000000 bulk dielectric constant

 Exchange correlation treatment:
   GGA     =    RP    GGA type
   LEXCH   =     9    internal setting for exchange type
   VOSKOWN=      0    Vosko Wilk Nusair interpolation
   LHFCALC =     F    Hartree Fock is set to
   LHFONE  =     F    Hartree Fock one center treatment
   AEXX    =    0.0000 exact exchange contribution

 Linear response parameters
   LEPSILON=     F    determine dielectric tensor
   LRPA    =     F    only Hartree local field effects (RPA)
   LNABLA  =     F    use nabla operator in PAW spheres
   LVEL    =     F    velocity operator in full k-point grid
   LINTERFAST=   F  fast interpolation
   KINTER  =     0    interpolate to denser k-point grid
   CSHIFT  =0.1000    complex shift for real part using Kramers Kronig
   OMEGAMAX=  -1.0    maximum frequency
   DEG_THRESHOLD= 0.2000000E-02 threshold for treating states as degnerate
   RTIME   =   -0.100 relaxation time in fs
  (WPLASMAI=    0.000 imaginary part of plasma frequency in eV, 0.658/RTIME)
   DFIELD  = 0.0000000 0.0000000 0.0000000 field for delta impulse in time
 
 Orbital magnetization related:
   ORBITALMAG=     F  switch on orbital magnetization
   LCHIMAG   =     F  perturbation theory with respect to B field
   DQ        =  0.001000  dq finite difference perturbation B field
   LLRAUG    =     F  two centre corrections for induced B field



--------------------------------------------------------------------------------------------------------


 quasi-Newton-method for relaxation of ions
   using selective dynamics as specified on POSCAR
   WARNING: If single coordinates had been selected the selection of coordinates
            is made according to the corresponding   d i r e c t   coordinates!
            Don't support selection of single cartesian coordinates -- sorry ...
  !
 charge density and potential will be updated during run
 spin polarized calculation
 RMM-DIIS sequential band-by-band and
  variant of blocked Davidson during initial phase
 perform sub-space diagonalisation
    before iterative eigenvector-optimisation
 modified Broyden-mixing scheme, WC =      100.0
 initial mixing is a Kerker type mixing with AMIX =  0.4000 and BMIX =      1.0000
 Hartree-type preconditioning will be used
 using additional bands          100
 real space projection scheme for non local part
 use partial core corrections
 calculate Harris-corrections to forces 
   (improved forces if not selfconsistent)
 use gradient corrections 
 use of overlap-Matrix (Vanderbilt PP)
 Gauss-broadening in eV      SIGMA  =   0.05


--------------------------------------------------------------------------------------------------------


  energy-cutoff  :      500.00
  volume of cell :     2144.87
      direct lattice vectors                 reciprocal lattice vectors
    12.808532000  0.000000000  0.000000000     0.078072959  0.000000000  0.000000000
     0.000000000  6.470243000  0.000000000     0.000000000  0.154553701  0.000000000
     0.000000000  0.000000000 25.880972000     0.000000000  0.000000000  0.038638425

  length of vectors
    12.808532000  6.470243000 25.880972000     0.078072959  0.154553701  0.038638425


 
 k-points in units of 2pi/SCALE and weight: Automatic mesh                          
   0.00000000  0.00000000  0.00000000       0.111
   0.02602432  0.00000000  0.00000000       0.222
   0.00000000  0.05151790  0.00000000       0.222
   0.02602432  0.05151790  0.00000000       0.444
 
 k-points in reciprocal lattice and weights: Automatic mesh                          
   0.00000000  0.00000000  0.00000000       0.111
   0.33333333  0.00000000  0.00000000       0.222
   0.00000000  0.33333333  0.00000000       0.222
   0.33333333  0.33333333  0.00000000       0.444
 
 position of ions in fractional coordinates (direct lattice) 
   0.12500000  0.50000000  0.18750000
   0.37500000  0.50000000  0.18750000
   0.12500000  0.00000000  0.06250000
   0.37500000  0.00000000  0.06250000
   0.00000000  0.50000000  0.06250000
   0.25000000  0.50000000  0.06250000
   0.00000000  0.00000000  0.18750000
   0.25000000  0.00000000  0.18750000
   0.12496892  0.50000000  0.43805915
   0.37512685  0.50000000  0.43829132
   0.12495896  0.00000000  0.31295633
   0.37453546  0.00000000  0.31267977
   0.00009354  0.50000000  0.31296129
   0.24991920  0.50000000  0.31294247
   0.99962610  0.00000000  0.44149230
   0.25055113  0.00000000  0.44174553
   0.00000000  0.50000000  0.13961000
   0.25000000  0.50000000  0.13961000
   0.00000000  0.00000000  0.01461000
   0.25000000  0.00000000  0.01461000
   0.12500000  0.80844000  0.18750000
   0.37500000  0.80844000  0.18750000
   0.12500000  0.30844000  0.06250000
   0.37500000  0.30844000  0.06250000
   0.00000000  0.50000000  0.23539000
   0.25000000  0.50000000  0.23539000
   0.00000000  0.00000000  0.11039000
   0.25000000  0.00000000  0.11039000
   0.12500000  0.19156000  0.18750000
   0.37500000  0.19156000  0.18750000
   0.12500000  0.69156000  0.06250000
   0.37500000  0.69156000  0.06250000
   0.99992045  0.50000000  0.38964158
   0.25013900  0.50000000  0.38967726
   0.00027821  0.00000000  0.26482866
   0.24966018  0.00000000  0.26476890
   0.12502021  0.80894324  0.43619384
   0.37609093  0.80865444  0.43766128
   0.12485193  0.30760455  0.31274173
   0.37491744  0.30764431  0.31246840
   0.99982707  0.50000000  0.48368255
   0.24988283  0.50000000  0.48365406
   0.99974680  0.00000000  0.36105771
   0.25020541  0.00000000  0.36098285
   0.12502021  0.19105676  0.43619384
   0.37609093  0.19134556  0.43766128
   0.12485193  0.69239545  0.31274173
   0.37491744  0.69235569  0.31246840
   0.24901969  0.00000000  0.51111495
   0.00098572  0.00000000  0.51087295
   0.62500000  0.50000000  0.18750000
   0.87500000  0.50000000  0.18750000
   0.62500000  0.00000000  0.06250000
   0.87500000  0.00000000  0.06250000
   0.50000000  0.50000000  0.06250000
   0.75000000  0.50000000  0.06250000
   0.50000000  0.00000000  0.18750000
   0.75000000  0.00000000  0.18750000
   0.62503423  0.50000000  0.43731938
   0.87490827  0.50000000  0.43832018
   0.62495166  0.00000000  0.31284574
   0.87542757  0.00000000  0.31265299
   0.49983705  0.50000000  0.31279356
   0.75016621  0.50000000  0.31275077
   0.50177924  0.00000000  0.44005219
   0.74798697  0.00000000  0.44022934
   0.50000000  0.50000000  0.13961000
   0.75000000  0.50000000  0.13961000
   0.50000000  0.00000000  0.01461000
   0.75000000  0.00000000  0.01461000
   0.62500000  0.80844000  0.18750000
   0.87500000  0.80844000  0.18750000
   0.62500000  0.30844000  0.06250000
   0.87500000  0.30844000  0.06250000
   0.50000000  0.50000000  0.23539000
   0.75000000  0.50000000  0.23539000
   0.50000000  0.00000000  0.11039000
   0.75000000  0.00000000  0.11039000
   0.62500000  0.19156000  0.18750000
   0.87500000  0.19156000  0.18750000
   0.62500000  0.69156000  0.06250000
   0.87500000  0.69156000  0.06250000
   0.49940759  0.50000000  0.38928535
   0.75066016  0.50000000  0.38928262
   0.50001386  0.00000000  0.26493134
   0.74990127  0.00000000  0.26476439
   0.62505593  0.80683129  0.43337987
   0.87378308  0.80855542  0.43719988
   0.62482802  0.30777060  0.31246363
   0.87537057  0.30764692  0.31238269
   0.50120694  0.50000000  0.48332043
   0.74908742  0.50000000  0.48337717
   0.49856382  0.00000000  0.36061847
   0.75130838  0.00000000  0.36048129
   0.62505593  0.19316871  0.43337987
   0.87378308  0.19144458  0.43719988
   0.62482802  0.69222940  0.31246363
   0.87537057  0.69235308  0.31238269
   0.72654572  0.00000000  0.51050160
   0.52416674  0.00000000  0.51041279
 
 position of ions in cartesian coordinates  (Angst):
   1.60106650  3.23512150  4.85268225
   4.80319950  3.23512150  4.85268225
   1.60106650  0.00000000  1.61756075
   4.80319950  0.00000000  1.61756075
   0.00000000  3.23512150  1.61756075
   3.20213300  3.23512150  1.61756075
   0.00000000  0.00000000  4.85268225
   3.20213300  0.00000000  4.85268225
   1.60066835  3.23512150 11.33739652
   4.80482430  3.23512150 11.34340532
   1.60054081  0.00000000  8.09961403
   4.79724936  0.00000000  8.09245646
   0.00119806  3.23512150  8.09974228
   3.20109813  3.23512150  8.09925537
  12.80374283  0.00000000 11.42624996
   3.20919220  0.00000000 11.43280370
   0.00000000  3.23512150  3.61324250
   3.20213300  3.23512150  3.61324250
   0.00000000  0.00000000  0.37812100
   3.20213300  0.00000000  0.37812100
   1.60106650  5.23080325  4.85268225
   4.80319950  5.23080325  4.85268225
   1.60106650  1.99568175  1.61756075
   4.80319950  1.99568175  1.61756075
   0.00000000  3.23512150  6.09212200
   3.20213300  3.23512150  6.09212200
   0.00000000  0.00000000  2.85700050
   3.20213300  0.00000000  2.85700050
   1.60106650  1.23943975  4.85268225
   4.80319950  1.23943975  4.85268225
   1.60106650  4.47456125  1.61756075
   4.80319950  4.47456125  1.61756075
  12.80751306  3.23512150 10.08430290
   3.20391341  3.23512150 10.08522627
   0.00356347  0.00000000  6.85402306
   3.19778039  0.00000000  6.85247661
   1.60132531  5.23405931 11.28912060
   4.81717265  5.23219070 11.32709942
   1.59916994  1.99027620  8.09405991
   4.80214201  1.99053343  8.08698587
  12.80631703  3.23512150 12.51817442
   3.20063221  3.23512150 12.51743719
  12.80528892  0.00000000  9.34452440
   3.20476404  0.00000000  9.34258712
   1.60132531  1.23618369 11.28912060
   4.81717265  1.23805230 11.32709942
   1.59916994  4.47996680  8.09405991
   4.80214201  4.47970957  8.08698587
   3.18957667  0.00000000 13.22815167
   0.01262560  0.00000000 13.22188849
   8.00533250  3.23512150  4.85268225
  11.20746550  3.23512150  4.85268225
   8.00533250  0.00000000  1.61756075
  11.20746550  0.00000000  1.61756075
   6.40426600  3.23512150  1.61756075
   9.60639900  3.23512150  1.61756075
   6.40426600  0.00000000  4.85268225
   9.60639900  0.00000000  4.85268225
   8.00577099  3.23512150 11.31825056
  11.20629063  3.23512150 11.34415220
   8.00471338  0.00000000  8.09675172
  11.21294205  0.00000000  8.09176334
   6.40217879  3.23512150  8.09540131
   9.60852794  3.23512150  8.09429385
   6.42705540  0.00000000 11.38897848
   9.58061507  0.00000000 11.39356315
   6.40426600  3.23512150  3.61324250
   9.60639900  3.23512150  3.61324250
   6.40426600  0.00000000  0.37812100
   9.60639900  0.00000000  0.37812100
   8.00533250  5.23080325  4.85268225
  11.20746550  5.23080325  4.85268225
   8.00533250  1.99568175  1.61756075
  11.20746550  1.99568175  1.61756075
   6.40426600  3.23512150  6.09212200
   9.60639900  3.23512150  6.09212200
   6.40426600  0.00000000  2.85700050
   9.60639900  0.00000000  2.85700050
   8.00533250  1.23943975  4.85268225
  11.20746550  1.23943975  4.85268225
   8.00533250  4.47456125  1.61756075
  11.20746550  4.47456125  1.61756075
   6.39667804  3.23512150 10.07508335
   9.61485470  3.23512150 10.07501249
   6.40444357  0.00000000  6.85668072
   9.60513441  0.00000000  6.85235971
   8.00604889  5.22039450 11.21629224
  11.19187858  5.23155007 11.31515788
   8.00312969  1.99135054  8.08686233
  11.21221192  1.99055033  8.08476763
   6.41972509  3.23512150 12.50880257
   9.59471020  3.23512150 12.51027097
   6.38587062  0.00000000  9.33315643
   9.62315737  0.00000000  9.32960630
   8.00604889  1.24984850 11.21629224
  11.19187858  1.23869293 11.31515788
   8.00312969  4.47889246  8.08686233
  11.21221192  4.47969267  8.08476763
   9.30598408  0.00000000 13.21227768
   6.71380650  0.00000000 13.20997911
 


--------------------------------------------------------------------------------------------------------


 k-point  1 :   0.0000 0.0000 0.0000  plane waves:   54455
 k-point  2 :   0.3333 0.0000 0.0000  plane waves:   54459
 k-point  3 :   0.0000 0.3333 0.0000  plane waves:   54468
 k-point  4 :   0.3333 0.3333 0.0000  plane waves:   54434

 maximum and minimum number of plane-waves per node :     27251    27204

 maximum number of plane-waves:     54468
 maximum index in each direction: 
   IXMAX=   23   IYMAX=   11   IZMAX=   47
   IXMIN=  -23   IYMIN=  -12   IZMIN=  -47


 real space projection operators:
  total allocation   :      13829.55 KBytes
  max/ min on nodes  :       6917.89       6911.66


 parallel 3D FFT for wavefunctions:
    minimum data exchange during FFTs selected (reduces bandwidth)
 parallel 3D FFT for charge:
    minimum data exchange during FFTs selected (reduces bandwidth)


 total amount of memory used by VASP MPI-rank0   511741. kBytes
=======================================================================

   base      :      30000. kBytes
   nonlr-proj:      12771. kBytes
   fftplans  :      18109. kBytes
   grid      :      50594. kBytes
   one-center:       1555. kBytes
   wavefun   :     398712. kBytes
 
     INWAV:  cpu time    0.0000: real time    0.0000
 Broyden mixing: mesh for mixing (old mesh)
   NGX = 47   NGY = 23   NGZ = 95
  (NGX  =140   NGY  = 72   NGZ  =288)
  gives a total of 102695 points

 initial charge density was supplied:
 charge density of overlapping atoms calculated
 number of electron     696.0000000 magnetization      60.0000000
 keeping initial charge density in first step


--------------------------------------------------------------------------------------------------------


 Maximum index for non-local projection operator         1221
 Maximum index for augmentation-charges         1840 (set IRDMAX)


--------------------------------------------------------------------------------------------------------


 First call to EWALD:  gamma=   0.137
 Maximum number of real-space cells 3x 5x 2
 Maximum number of reciprocal cells 3x 2x 5

    FEWALD:  cpu time    0.0112: real time    0.0112


--------------------------------------- Iteration      1(   1)  ---------------------------------------


    POTLOK:  cpu time    0.5603: real time    0.5648
    SETDIJ:  cpu time    0.0590: real time    0.0613
     EDDAV:  cpu time   84.0552: real time   84.2710
       DOS:  cpu time    0.0023: real time    0.0023
    --------------------------------------------
      LOOP:  cpu time   84.6768: real time   84.8994

 eigenvalue-minimisations  :  7224
 total energy-change (2. order) : 0.7758863E+04  (-0.3136545E+05)
 number of electron     696.0000000 magnetization      60.0000000
 augmentation part      696.0000000 magnetization      60.0000000

 Free energy of the ion-electron system (eV)
  ---------------------------------------------------
  alpha Z        PSCENC =      1826.57435200
  Ewald energy   TEWEN  =    230070.25828504
  -Hartree energ DENC   =   -276979.08638537
  -exchange      EXHF   =         0.00000000
  -V(xc)+E(xc)   XCENC  =      1311.40716484
  PAW double counting   =     41249.06120504   -40032.83491672
  entropy T*S    EENTRO =        -0.05190492
  eigenvalues    EBANDS =      3015.47862315
  atomic energy  EATOM  =     47298.05697971
  Solvation  Ediel_sol  =         0.00000000
  ---------------------------------------------------
  free energy    TOTEN  =      7758.86340277 eV

  energy without entropy =     7758.91530769  energy(sigma->0) =     7758.88935523


--------------------------------------------------------------------------------------------------------




--------------------------------------- Iteration      1(   2)  ---------------------------------------


     EDDAV:  cpu time   89.6996: real time   89.9185
       DOS:  cpu time    0.0025: real time    0.0025
    --------------------------------------------
      LOOP:  cpu time   89.7021: real time   89.9210

 eigenvalue-minimisations  :  7520
 total energy-change (2. order) :-0.7219870E+04  (-0.6638380E+04)
 number of electron     696.0000000 magnetization      60.0000000
 augmentation part      696.0000000 magnetization      60.0000000

 Free energy of the ion-electron system (eV)
  ---------------------------------------------------
  alpha Z        PSCENC =      1826.57435200
  Ewald energy   TEWEN  =    230070.25828504
  -Hartree energ DENC   =   -276979.08638537
  -exchange      EXHF   =         0.00000000
  -V(xc)+E(xc)   XCENC  =      1311.40716484
  PAW double counting   =     41249.06120504   -40032.83491672
  entropy T*S    EENTRO =        -0.03561625
  eigenvalues    EBANDS =     -4204.40752638
  atomic energy  EATOM  =     47298.05697971
  Solvation  Ediel_sol  =         0.00000000
  ---------------------------------------------------
  free energy    TOTEN  =       538.99354191 eV

  energy without entropy =      539.02915816  energy(sigma->0) =      539.01135004


--------------------------------------------------------------------------------------------------------




--------------------------------------- Iteration      1(   3)  ---------------------------------------


     EDDAV:  cpu time  105.1885: real time  105.4502
       DOS:  cpu time    0.0026: real time    0.0026
    --------------------------------------------
      LOOP:  cpu time  105.1911: real time  105.4528

 eigenvalue-minimisations  :  9104
 total energy-change (2. order) :-0.1242213E+04  (-0.1182188E+04)
 number of electron     696.0000000 magnetization      60.0000000
 augmentation part      696.0000000 magnetization      60.0000000

 Free energy of the ion-electron system (eV)
  ---------------------------------------------------
  alpha Z        PSCENC =      1826.57435200
  Ewald energy   TEWEN  =    230070.25828504
  -Hartree energ DENC   =   -276979.08638537
  -exchange      EXHF   =         0.00000000
  -V(xc)+E(xc)   XCENC  =      1311.40716484
  PAW double counting   =     41249.06120504   -40032.83491672
  entropy T*S    EENTRO =        -0.06338244
  eigenvalues    EBANDS =     -5446.59308985
  atomic energy  EATOM  =     47298.05697971
  Solvation  Ediel_sol  =         0.00000000
  ---------------------------------------------------
  free energy    TOTEN  =      -703.21978775 eV

  energy without entropy =     -703.15640531  energy(sigma->0) =     -703.18809653


--------------------------------------------------------------------------------------------------------




--------------------------------------- Iteration      1(   4)  ---------------------------------------


     EDDAV:  cpu time  105.3785: real time  105.6372
       DOS:  cpu time    0.0025: real time    0.0025
    --------------------------------------------
      LOOP:  cpu time  105.3810: real time  105.6397

 eigenvalue-minimisations  :  9088
 total energy-change (2. order) :-0.7369172E+02  (-0.7136623E+02)
 number of electron     696.0000000 magnetization      60.0000000
 augmentation part      696.0000000 magnetization      60.0000000

 Free energy of the ion-electron system (eV)
  ---------------------------------------------------
  alpha Z        PSCENC =      1826.57435200
  Ewald energy   TEWEN  =    230070.25828504
  -Hartree energ DENC   =   -276979.08638537
  -exchange      EXHF   =         0.00000000
  -V(xc)+E(xc)   XCENC  =      1311.40716484
  PAW double counting   =     41249.06120504   -40032.83491672
  entropy T*S    EENTRO =        -0.06542592
  eigenvalues    EBANDS =     -5520.28276681
  atomic energy  EATOM  =     47298.05697971
  Solvation  Ediel_sol  =         0.00000000
  ---------------------------------------------------
  free energy    TOTEN  =      -776.91150819 eV

  energy without entropy =     -776.84608227  energy(sigma->0) =     -776.87879523


--------------------------------------------------------------------------------------------------------




--------------------------------------- Iteration      1(   5)  ---------------------------------------


     EDDAV:  cpu time  105.1806: real time  105.4413
       DOS:  cpu time    0.0028: real time    0.0028
    CHARGE:  cpu time    3.9338: real time    3.9435
    MIXING:  cpu time    0.0117: real time    0.0124
    --------------------------------------------
      LOOP:  cpu time  109.1290: real time  109.4000

 eigenvalue-minimisations  :  9144
 total energy-change (2. order) :-0.2279771E+01  (-0.2248264E+01)
 number of electron     696.0000613 magnetization      56.0581382
 augmentation part      119.1864607 magnetization      47.0002424

 Broyden mixing:
  rms(total) = 0.17756E+02    rms(broyden)= 0.17754E+02
  rms(prec ) = 0.18003E+02
  weight for this iteration     100.00

 Free energy of the ion-electron system (eV)
  ---------------------------------------------------
  alpha Z        PSCENC =      1826.57435200
  Ewald energy   TEWEN  =    230070.25828504
  -Hartree energ DENC   =   -276979.08638537
  -exchange      EXHF   =         0.00000000
  -V(xc)+E(xc)   XCENC  =      1311.40716484
  PAW double counting   =     41249.06120504   -40032.83491672
  entropy T*S    EENTRO =        -0.06577330
  eigenvalues    EBANDS =     -5522.56219026
  atomic energy  EATOM  =     47298.05697971
  Solvation  Ediel_sol  =         0.00000000
  ---------------------------------------------------
  free energy    TOTEN  =      -779.19127902 eV

  energy without entropy =     -779.12550572  energy(sigma->0) =     -779.15839237


--------------------------------------------------------------------------------------------------------




--------------------------------------- Iteration      1(   6)  ---------------------------------------


    POTLOK:  cpu time    0.5932: real time    0.5979
    SETDIJ:  cpu time    0.0654: real time    0.0656
    EDDIAG:  cpu time   13.9086: real time   13.9438
  RMM-DIIS:  cpu time   46.6417: real time   46.7576
    ORTHCH:  cpu time    3.0634: real time    3.0709
       DOS:  cpu time    0.0026: real time    0.0026
    CHARGE:  cpu time    2.6279: real time    2.6345
    MIXING:  cpu time    0.0135: real time    0.0135
    --------------------------------------------
      LOOP:  cpu time   66.9162: real time   67.0863

 eigenvalue-minimisations  :  7202
 total energy-change (2. order) : 0.1016757E+03  (-0.7573242E+02)
 number of electron     696.0000543 magnetization      53.0233260
 augmentation part      131.7416564 magnetization      45.7083599

 Broyden mixing:
  rms(total) = 0.13043E+02    rms(broyden)= 0.13040E+02
  rms(prec ) = 0.14194E+02
  weight for this iteration     100.00

 eigenvalues of (default mixing * dielectric matrix)
  average eigenvalue GAMMA=   0.8243
  0.8243

 Free energy of the ion-electron system (eV)
  ---------------------------------------------------
  alpha Z        PSCENC =      1826.57435200
  Ewald energy   TEWEN  =    230070.25828504
  -Hartree energ DENC   =   -277088.25648038
  -exchange      EXHF   =         0.00000000
  -V(xc)+E(xc)   XCENC  =      1395.26136036
  PAW double counting   =     49293.53494608   -48143.89538638
  entropy T*S    EENTRO =        -0.06546760
  eigenvalues    EBANDS =     -5328.98415110
  atomic energy  EATOM  =     47298.05697971
  Solvation  Ediel_sol  =         0.00000000
  ---------------------------------------------------
  free energy    TOTEN  =      -677.51556227 eV

  energy without entropy =     -677.45009467  energy(sigma->0) =     -677.48282847


--------------------------------------------------------------------------------------------------------




--------------------------------------- Iteration      1(   7)  ---------------------------------------


    POTLOK:  cpu time    0.5885: real time    0.5935
    SETDIJ:  cpu time    0.0669: real time    0.0670
    EDDIAG:  cpu time   13.5497: real time   13.5842
  RMM-DIIS:  cpu time   48.6073: real time   48.7276
    ORTHCH:  cpu time    3.1595: real time    3.1673
       DOS:  cpu time    0.0025: real time    0.0025
    CHARGE:  cpu time    3.8285: real time    3.8378
    MIXING:  cpu time    0.0126: real time    0.0127
    --------------------------------------------
      LOOP:  cpu time   69.8155: real time   69.9927

 eigenvalue-minimisations  :  7592
 total energy-change (2. order) :-0.4504876E+03  (-0.4399195E+02)
 number of electron     696.0000546 magnetization      52.4196169
 augmentation part      123.8154823 magnetization      41.8634770

 Broyden mixing:
  rms(total) = 0.33344E+02    rms(broyden)= 0.33342E+02
  rms(prec ) = 0.36933E+02
  weight for this iteration     100.00

 eigenvalues of (default mixing * dielectric matrix)
  average eigenvalue GAMMA=   0.4423
  0.8585  0.0261

 Free energy of the ion-electron system (eV)
  ---------------------------------------------------
  alpha Z        PSCENC =      1826.57435200
  Ewald energy   TEWEN  =    230070.25828504
  -Hartree energ DENC   =   -278157.40845075
  -exchange      EXHF   =         0.00000000
  -V(xc)+E(xc)   XCENC  =      1371.83739261
  PAW double counting   =     53794.28032447   -52648.03475167
  entropy T*S    EENTRO =        -0.05460316
  eigenvalues    EBANDS =     -4683.51265527
  atomic energy  EATOM  =     47298.05697971
  Solvation  Ediel_sol  =         0.00000000
  ---------------------------------------------------
  free energy    TOTEN  =     -1128.00312703 eV

  energy without entropy =    -1127.94852387  energy(sigma->0) =    -1127.97582545


--------------------------------------------------------------------------------------------------------




--------------------------------------- Iteration      1(   8)  ---------------------------------------


    POTLOK:  cpu time    0.5028: real time    0.5082
    SETDIJ:  cpu time    0.0647: real time    0.0648
    EDDIAG:  cpu time   13.6161: real time   13.6522
  RMM-DIIS:  cpu time   47.6444: real time   47.7616
    ORTHCH:  cpu time    3.1412: real time    3.1489
       DOS:  cpu time    0.0025: real time    0.0025
    CHARGE:  cpu time    4.4402: real time    4.4510
    MIXING:  cpu time    0.0142: real time    0.0164
    --------------------------------------------
      LOOP:  cpu time   69.4259: real time   69.6056

 eigenvalue-minimisations  :  7441
 total energy-change (2. order) : 0.1822927E+03  (-0.4282611E+01)
 number of electron     696.0000541 magnetization      51.0342951
 augmentation part      123.6158924 magnetization      39.4680810

 Broyden mixing:
  rms(total) = 0.27000E+02    rms(broyden)= 0.27000E+02
  rms(prec ) = 0.30215E+02
  weight for this iteration     100.00

 eigenvalues of (default mixing * dielectric matrix)
  average eigenvalue GAMMA=   0.4624
  0.8748  0.2562  0.2562

 Free energy of the ion-electron system (eV)
  ---------------------------------------------------
  alpha Z        PSCENC =      1826.57435200
  Ewald energy   TEWEN  =    230070.25828504
  -Hartree energ DENC   =   -278185.43314239
  -exchange      EXHF   =         0.00000000
  -V(xc)+E(xc)   XCENC  =      1370.63028507
  PAW double counting   =     54919.22387466   -53773.99689228
  entropy T*S    EENTRO =        -0.06374297
  eigenvalues    EBANDS =     -4470.96039537
  atomic energy  EATOM  =     47298.05697971
  Solvation  Ediel_sol  =         0.00000000
  ---------------------------------------------------
  free energy    TOTEN  =      -945.71039654 eV

  energy without entropy =     -945.64665357  energy(sigma->0) =     -945.67852505


--------------------------------------------------------------------------------------------------------




--------------------------------------- Iteration      1(   9)  ---------------------------------------


    POTLOK:  cpu time    0.5178: real time    0.5226
    SETDIJ:  cpu time    0.0749: real time    0.0750
    EDDIAG:  cpu time   13.9088: real time   13.9431
  RMM-DIIS:  cpu time   45.9813: real time   46.0947
    ORTHCH:  cpu time    3.1178: real time    3.1255
       DOS:  cpu time    0.0026: real time    0.0026
    CHARGE:  cpu time    4.4166: real time    4.4276
    MIXING:  cpu time    0.0140: real time    0.0141
    --------------------------------------------
      LOOP:  cpu time   68.0338: real time   68.2052

 eigenvalue-minimisations  :  7214
 total energy-change (2. order) : 0.6199322E+02  (-0.1222133E+02)
 number of electron     696.0000555 magnetization      48.4367438
 augmentation part      126.9757648 magnetization      40.6158557

 Broyden mixing:
  rms(total) = 0.23673E+02    rms(broyden)= 0.23672E+02
  rms(prec ) = 0.26868E+02
  weight for this iteration     100.00

 eigenvalues of (default mixing * dielectric matrix)
  average eigenvalue GAMMA=   0.5252
  1.2877  0.3725  0.2204  0.2204

 Free energy of the ion-electron system (eV)
  ---------------------------------------------------
  alpha Z        PSCENC =      1826.57435200
  Ewald energy   TEWEN  =    230070.25828504
  -Hartree energ DENC   =   -277089.12085761
  -exchange      EXHF   =         0.00000000
  -V(xc)+E(xc)   XCENC  =      1372.03056937
  PAW double counting   =     55795.28071953   -54656.78612872
  entropy T*S    EENTRO =        -0.07014065
  eigenvalues    EBANDS =     -5499.94095777
  atomic energy  EATOM  =     47298.05697971
  Solvation  Ediel_sol  =         0.00000000
  ---------------------------------------------------
  free energy    TOTEN  =      -883.71717910 eV

  energy without entropy =     -883.64703845  energy(sigma->0) =     -883.68210878


--------------------------------------------------------------------------------------------------------




--------------------------------------- Iteration      1(  10)  ---------------------------------------


    POTLOK:  cpu time    0.5011: real time    0.5059
    SETDIJ:  cpu time    0.0740: real time    0.0742
    EDDIAG:  cpu time   13.5264: real time   13.5592
  RMM-DIIS:  cpu time   46.0598: real time   46.1734
    ORTHCH:  cpu time    3.0731: real time    3.0808
       DOS:  cpu time    0.0025: real time    0.0025
    CHARGE:  cpu time    4.5481: real time    4.5595
    MIXING:  cpu time    0.0164: real time    0.0164
    --------------------------------------------
      LOOP:  cpu time   67.8014: real time   67.9720

 eigenvalue-minimisations  :  7329
 total energy-change (2. order) : 0.3417103E+02  (-0.1066190E+02)
 number of electron     696.0000574 magnetization      46.5528057
 augmentation part      125.6914184 magnetization      39.6443012

 Broyden mixing:
  rms(total) = 0.17355E+02    rms(broyden)= 0.17353E+02
  rms(prec ) = 0.20584E+02
  weight for this iteration     100.00

 eigenvalues of (default mixing * dielectric matrix)
  average eigenvalue GAMMA=   0.5185
  1.6065  0.4452  0.2110  0.2110  0.1186

 Free energy of the ion-electron system (eV)
  ---------------------------------------------------
  alpha Z        PSCENC =      1826.57435200
  Ewald energy   TEWEN  =    230070.25828504
  -Hartree energ DENC   =   -277316.15602829
  -exchange      EXHF   =         0.00000000
  -V(xc)+E(xc)   XCENC  =      1373.36588954
  PAW double counting   =     58546.32695771   -57419.09687428
  entropy T*S    EENTRO =        -0.04473079
  eigenvalues    EBANDS =     -5228.83097852
  atomic energy  EATOM  =     47298.05697971
  Solvation  Ediel_sol  =         0.00000000
  ---------------------------------------------------
  free energy    TOTEN  =      -849.54614790 eV

  energy without entropy =     -849.50141710  energy(sigma->0) =     -849.52378250


--------------------------------------------------------------------------------------------------------




--------------------------------------- Iteration      1(  11)  ---------------------------------------


    POTLOK:  cpu time    0.5315: real time    0.5370
    SETDIJ:  cpu time    0.0622: real time    0.0624
    EDDIAG:  cpu time   13.2254: real time   13.2578
  RMM-DIIS:  cpu time   47.0565: real time   47.1728
    ORTHCH:  cpu time    3.0811: real time    3.0887
       DOS:  cpu time    0.0025: real time    0.0025
    CHARGE:  cpu time    4.3484: real time    4.3589
    MIXING:  cpu time    0.0164: real time    0.0165
    --------------------------------------------
      LOOP:  cpu time   68.3240: real time   68.4966

 eigenvalue-minimisations  :  7388
 total energy-change (2. order) : 0.1246905E+03  (-0.1678451E+01)
 number of electron     696.0000585 magnetization      44.1810921
 augmentation part      123.0642033 magnetization      39.3145871

 Broyden mixing:
  rms(total) = 0.12079E+02    rms(broyden)= 0.12079E+02
  rms(prec ) = 0.14397E+02
  weight for this iteration     100.00

 eigenvalues of (default mixing * dielectric matrix)
  average eigenvalue GAMMA=   0.5543
  1.7843  0.4345  0.4345  0.2577  0.2577  0.1568

 Free energy of the ion-electron system (eV)
  ---------------------------------------------------
  alpha Z        PSCENC =      1826.57435200
  Ewald energy   TEWEN  =    230070.25828504
  -Hartree energ DENC   =   -277275.80664162
  -exchange      EXHF   =         0.00000000
  -V(xc)+E(xc)   XCENC  =      1375.08021468
  PAW double counting   =     60930.25350216   -59811.59679972
  entropy T*S    EENTRO =        -0.03018716
  eigenvalues    EBANDS =     -5137.64536133
  atomic energy  EATOM  =     47298.05697971
  Solvation  Ediel_sol  =         0.00000000
  ---------------------------------------------------
  free energy    TOTEN  =      -724.85565625 eV

  energy without entropy =     -724.82546908  energy(sigma->0) =     -724.84056266


--------------------------------------------------------------------------------------------------------




--------------------------------------- Iteration      1(  12)  ---------------------------------------


    POTLOK:  cpu time    0.5092: real time    0.5135
    SETDIJ:  cpu time    0.0637: real time    0.0639
    EDDIAG:  cpu time   13.3882: real time   13.4211
  RMM-DIIS:  cpu time   45.7049: real time   45.8179
    ORTHCH:  cpu time    3.1097: real time    3.1173
       DOS:  cpu time    0.0026: real time    0.0026
    CHARGE:  cpu time    4.2538: real time    4.2642
    MIXING:  cpu time    0.0187: real time    0.0187
    --------------------------------------------
      LOOP:  cpu time   67.0508: real time   67.2192

 eigenvalue-minimisations  :  7171
 total energy-change (2. order) : 0.7292375E+02  (-0.6667644E+01)
 number of electron     696.0000572 magnetization      42.5459574
 augmentation part      126.9811588 magnetization      36.8300638

 Broyden mixing:
  rms(total) = 0.72184E+01    rms(broyden)= 0.72167E+01
  rms(prec ) = 0.94615E+01
  weight for this iteration     100.00

 eigenvalues of (default mixing * dielectric matrix)
  average eigenvalue GAMMA=   0.5388
  1.8130  0.4425  0.4425  0.4124  0.2550  0.2550  0.1512

 Free energy of the ion-electron system (eV)
  ---------------------------------------------------
  alpha Z        PSCENC =      1826.57435200
  Ewald energy   TEWEN  =    230070.25828504
  -Hartree energ DENC   =   -277401.37762732
  -exchange      EXHF   =         0.00000000
  -V(xc)+E(xc)   XCENC  =      1385.33363383
  PAW double counting   =     61946.00172851   -60836.29242118
  entropy T*S    EENTRO =        -0.04885693
  eigenvalues    EBANDS =     -4940.43798363
  atomic energy  EATOM  =     47298.05697971
  Solvation  Ediel_sol  =         0.00000000
  ---------------------------------------------------
  free energy    TOTEN  =      -651.93190996 eV

  energy without entropy =     -651.88305303  energy(sigma->0) =     -651.90748150


--------------------------------------------------------------------------------------------------------




--------------------------------------- Iteration      1(  13)  ---------------------------------------


    POTLOK:  cpu time    0.5344: real time    0.5389
    SETDIJ:  cpu time    0.0647: real time    0.0649
    EDDIAG:  cpu time   13.5208: real time   13.5540
  RMM-DIIS:  cpu time   46.1858: real time   46.2997
    ORTHCH:  cpu time    3.1773: real time    3.1852
       DOS:  cpu time    0.0026: real time    0.0026
    CHARGE:  cpu time    4.2888: real time    4.2992
    MIXING:  cpu time    0.0210: real time    0.0211
    --------------------------------------------
      LOOP:  cpu time   67.7954: real time   67.9656

 eigenvalue-minimisations  :  7268
 total energy-change (2. order) : 0.4763007E+02  (-0.2579219E+01)
 number of electron     696.0000581 magnetization      41.8639818
 augmentation part      124.8759427 magnetization      34.3596520

 Broyden mixing:
  rms(total) = 0.41258E+01    rms(broyden)= 0.41221E+01
  rms(prec ) = 0.45091E+01
  weight for this iteration     100.00

 eigenvalues of (default mixing * dielectric matrix)
  average eigenvalue GAMMA=   0.5116
  1.6818  0.5309  0.5309  0.3495  0.3495  0.2500  0.2500  0.1501

 Free energy of the ion-electron system (eV)
  ---------------------------------------------------
  alpha Z        PSCENC =      1826.57435200
  Ewald energy   TEWEN  =    230070.25828504
  -Hartree energ DENC   =   -277260.76804501
  -exchange      EXHF   =         0.00000000
  -V(xc)+E(xc)   XCENC  =      1381.89226766
  PAW double counting   =     62481.67305939   -61374.13956500
  entropy T*S    EENTRO =        -0.08229599
  eigenvalues    EBANDS =     -5027.76687280
  atomic energy  EATOM  =     47298.05697971
  Solvation  Ediel_sol  =         0.00000000
  ---------------------------------------------------
  free energy    TOTEN  =      -604.30183500 eV

  energy without entropy =     -604.21953901  energy(sigma->0) =     -604.26068700


--------------------------------------------------------------------------------------------------------




--------------------------------------- Iteration      1(  14)  ---------------------------------------


    POTLOK:  cpu time    0.5322: real time    0.5364
    SETDIJ:  cpu time    0.0651: real time    0.0653
    EDDIAG:  cpu time   13.6271: real time   13.6613
  RMM-DIIS:  cpu time   45.9101: real time   46.0235
    ORTHCH:  cpu time    3.1683: real time    3.1762
       DOS:  cpu time    0.0023: real time    0.0023
    CHARGE:  cpu time    4.3695: real time    4.3802
    MIXING:  cpu time    0.0263: real time    0.0263
    --------------------------------------------
      LOOP:  cpu time   67.7010: real time   67.8715

 eigenvalue-minimisations  :  7186
 total energy-change (2. order) :-0.5841675E+01  (-0.7071673E+00)
 number of electron     696.0000581 magnetization      40.8977201
 augmentation part      125.3023031 magnetization      32.9840435

 Broyden mixing:
  rms(total) = 0.35539E+01    rms(broyden)= 0.35525E+01
  rms(prec ) = 0.39938E+01
  weight for this iteration     100.00

 eigenvalues of (default mixing * dielectric matrix)
  average eigenvalue GAMMA=   0.4836
  1.6931  0.4828  0.4828  0.4113  0.4113  0.2532  0.2532  0.1489  0.2155

 Free energy of the ion-electron system (eV)
  ---------------------------------------------------
  alpha Z        PSCENC =      1826.57435200
  Ewald energy   TEWEN  =    230070.25828504
  -Hartree energ DENC   =   -277205.94913955
  -exchange      EXHF   =         0.00000000
  -V(xc)+E(xc)   XCENC  =      1378.90634242
  PAW double counting   =     62180.42627383   -61073.21679308
  entropy T*S    EENTRO =        -0.06463206
  eigenvalues    EBANDS =     -5085.13517782
  atomic energy  EATOM  =     47298.05697971
  Solvation  Ediel_sol  =         0.00000000
  ---------------------------------------------------
  free energy    TOTEN  =      -610.14350952 eV

  energy without entropy =     -610.07887746  energy(sigma->0) =     -610.11119349


--------------------------------------------------------------------------------------------------------




--------------------------------------- Iteration      1(  15)  ---------------------------------------


    POTLOK:  cpu time    0.5438: real time    0.5491
    SETDIJ:  cpu time    0.0661: real time    0.0663
    EDDIAG:  cpu time   13.4224: real time   13.4551
  RMM-DIIS:  cpu time   46.0646: real time   46.1784
    ORTHCH:  cpu time    3.1439: real time    3.1518
       DOS:  cpu time    0.0027: real time    0.0027
    CHARGE:  cpu time    4.3561: real time    4.3668
    MIXING:  cpu time    0.0256: real time    0.0256
    --------------------------------------------
      LOOP:  cpu time   67.6253: real time   67.7959

 eigenvalue-minimisations  :  7204
 total energy-change (2. order) : 0.4722256E+00  (-0.2201027E+00)
 number of electron     696.0000579 magnetization      40.1809474
 augmentation part      125.0222278 magnetization      31.9312032

 Broyden mixing:
  rms(total) = 0.29140E+01    rms(broyden)= 0.29138E+01
  rms(prec ) = 0.31142E+01
  weight for this iteration     100.00

 eigenvalues of (default mixing * dielectric matrix)
  average eigenvalue GAMMA=   0.5000
  1.6395  0.5895  0.5895  0.4932  0.4932  0.2658  0.2658  0.1495  0.2568  0.2568

 Free energy of the ion-electron system (eV)
  ---------------------------------------------------
  alpha Z        PSCENC =      1826.57435200
  Ewald energy   TEWEN  =    230070.25828504
  -Hartree energ DENC   =   -277211.94597075
  -exchange      EXHF   =         0.00000000
  -V(xc)+E(xc)   XCENC  =      1376.01810786
  PAW double counting   =     62320.52409824   -61214.49212254
  entropy T*S    EENTRO =        -0.08238841
  eigenvalues    EBANDS =     -5074.58262509
  atomic energy  EATOM  =     47298.05697971
  Solvation  Ediel_sol  =         0.00000000
  ---------------------------------------------------
  free energy    TOTEN  =      -609.67128394 eV

  energy without entropy =     -609.58889554  energy(sigma->0) =     -609.63008974


--------------------------------------------------------------------------------------------------------




--------------------------------------- Iteration      1(  16)  ---------------------------------------


    POTLOK:  cpu time    0.5538: real time    0.5597
[...]
   -.164E+01 0.340E+02 0.604E+03   0.166E+01 -.356E+02 -.604E+03   0.522E-01 0.161E+01 -.393E-01   -.110E-01 -.737E-02 0.173E-01
   -.165E-02 -.361E+01 0.167E+04   -.224E-02 0.173E+01 -.167E+04   -.543E-01 0.180E+01 -.469E+00   0.481E-02 0.320E-02 0.306E-01
   -.339E+00 -.361E+01 0.167E+04   0.340E+00 0.173E+01 -.167E+04   0.574E-01 0.180E+01 -.470E+00   -.491E-02 0.322E-02 0.284E-01
   0.212E+01 -.558E-12 0.169E+03   -.210E+01 0.488E-13 -.166E+03   -.385E-01 0.000E+00 -.238E+01   0.118E-01 0.334E-12 -.465E-03
   -.206E+01 -.877E-12 0.169E+03   0.205E+01 0.533E-13 -.166E+03   0.113E-01 0.000E+00 -.237E+01   -.605E-02 -.152E-11 -.471E-02
   0.439E+00 -.527E-12 0.121E+04   -.445E+00 0.138E-13 -.121E+04   -.643E-02 0.000E+00 0.232E+00   0.756E-02 0.643E-12 0.411E-01
   -.437E+00 0.500E-12 0.121E+04   0.436E+00 0.332E-14 -.121E+04   0.941E-02 0.000E+00 0.223E+00   -.134E-02 0.104E-11 0.403E-01
   0.742E-02 -.340E+02 0.606E+03   -.119E-01 0.356E+02 -.606E+03   -.530E-01 -.161E+01 -.435E-01   0.346E-02 0.631E-02 0.209E-01
   -.164E+01 -.340E+02 0.604E+03   0.166E+01 0.356E+02 -.604E+03   0.522E-01 -.161E+01 -.393E-01   -.110E-01 0.737E-02 0.173E-01
   -.165E-02 0.361E+01 0.167E+04   -.224E-02 -.173E+01 -.167E+04   -.543E-01 -.180E+01 -.469E+00   0.481E-02 -.320E-02 0.306E-01
   -.339E+00 0.361E+01 0.167E+04   0.340E+00 -.173E+01 -.167E+04   0.574E-01 -.180E+01 -.470E+00   -.491E-02 -.322E-02 0.284E-01
   0.147E+02 -.453E-12 -.107E+04   -.152E+02 0.317E-13 0.107E+04   0.520E+00 0.000E+00 -.987E+00   0.234E-01 0.856E-12 -.504E-01
   -.153E+02 -.186E-11 -.107E+04   0.159E+02 0.146E-13 0.107E+04   -.528E+00 0.000E+00 -.937E+00   -.171E-01 -.153E-11 -.525E-01
   0.316E+01 -.130E-12 -.136E+02   -.338E+01 -.393E-13 0.118E+02   0.192E+00 0.000E+00 0.177E+01   0.175E-01 -.127E-11 -.803E-02
   -.292E+01 -.139E-12 -.142E+02   0.307E+01 -.639E-13 0.126E+02   -.123E+00 0.000E+00 0.160E+01   -.127E-01 -.188E-12 -.777E-02
   -.804E+00 0.493E+02 -.144E+04   0.850E+00 -.516E+02 0.143E+04   -.565E-01 0.239E+01 0.779E+01   0.117E-01 -.996E-02 -.264E-01
   -.618E+01 0.376E+02 -.152E+04   0.619E+01 -.398E+02 0.152E+04   0.531E-01 0.224E+01 0.450E+00   -.229E-01 0.534E-02 -.561E-01
   -.102E+01 0.305E+02 -.443E+03   0.110E+01 -.321E+02 0.443E+03   -.887E-01 0.160E+01 0.305E+00   0.571E-02 -.932E-03 -.268E-01
   -.456E+01 0.313E+02 -.452E+03   0.451E+01 -.329E+02 0.452E+03   0.703E-01 0.161E+01 0.361E+00   -.121E-01 -.231E-02 -.298E-01
   0.552E+01 0.170E-11 -.198E+04   -.521E+01 0.130E-13 0.201E+04   -.339E+00 0.000E+00 -.295E+02   0.486E-02 -.764E-12 -.684E-02
   -.613E+01 -.336E-11 -.198E+04   0.591E+01 0.276E-13 0.201E+04   0.232E+00 0.000E+00 -.295E+02   -.866E-03 -.234E-11 -.275E-01
   0.134E+02 -.237E-12 -.894E+03   -.128E+02 -.394E-14 0.900E+03   -.587E+00 0.000E+00 -.661E+01   0.239E-01 -.926E-12 -.406E-01
   -.141E+02 -.261E-12 -.893E+03   0.136E+02 -.604E-13 0.900E+03   0.554E+00 0.000E+00 -.656E+01   -.115E-01 0.727E-12 -.306E-01
   -.804E+00 -.493E+02 -.144E+04   0.850E+00 0.516E+02 0.143E+04   -.565E-01 -.239E+01 0.779E+01   0.117E-01 0.996E-02 -.264E-01
   -.618E+01 -.376E+02 -.152E+04   0.619E+01 0.398E+02 0.152E+04   0.531E-01 -.224E+01 0.450E+00   -.229E-01 -.534E-02 -.561E-01
   -.102E+01 -.305E+02 -.443E+03   0.110E+01 0.321E+02 0.443E+03   -.887E-01 -.160E+01 0.305E+00   0.571E-02 0.932E-03 -.268E-01
   -.456E+01 -.313E+02 -.452E+03   0.451E+01 0.329E+02 0.452E+03   0.703E-01 -.161E+01 0.361E+00   -.121E-01 0.231E-02 -.298E-01
   -.194E+02 0.747E-12 -.205E+04   0.149E+02 -.102E-13 0.208E+04   0.504E+01 0.000E+00 -.316E+02   -.933E-02 0.191E-11 -.118E-01
   0.192E+02 -.968E-13 -.205E+04   -.146E+02 -.118E-13 0.208E+04   -.513E+01 0.000E+00 -.316E+02   0.240E-01 0.817E-13 0.578E-02
 -----------------------------------------------------------------------------------------------
   0.297E+00 0.880E-10 0.176E+03   -.175E-11 -.931E-13 -.682E-11   -.506E+00 0.111E-14 -.175E+03   0.571E-01 0.431E-11 -.754E+00
 
 
 POSITION                                       TOTAL-FORCE (eV/Angst)
 -----------------------------------------------------------------------------------
      1.60107      3.23512      4.85268        -0.008041     -0.000000     -0.314102
      4.80320      3.23512      4.85268         0.010159     -0.000000     -0.315782
      1.60107      0.00000      1.61756        -0.010184     -0.000000     -0.953794
      4.80320      0.00000      1.61756         0.011949     -0.000000     -0.952861
      0.00000      3.23512      1.61756        -0.000017     -0.000000      1.569077
      3.20213      3.23512      1.61756         0.003269     -0.000000      1.581674
      0.00000      0.00000      4.85268         0.046098     -0.000000     -0.060907
      3.20213      0.00000      4.85268        -0.052876     -0.000000     -0.073789
      1.60068      3.23512     11.34042        -0.001796     -0.000000      0.008211
      4.80759      3.23512     11.34983        -0.010531     -0.000000     -0.015000
      1.60006      0.00000      8.10756         0.000747     -0.000000     -0.001372
      4.79773      0.00000      8.09475        -0.000912     -0.000000      0.000352
      0.00071      3.23512      8.10269        -0.006456     -0.000000     -0.001306
      3.20132      3.23512      8.10293         0.001607     -0.000000     -0.002328
     12.80317      0.00000     11.44485         0.009097     -0.000000      0.000258
      3.20476      0.00000     11.44606        -0.010150     -0.000000     -0.000555
      0.00000      3.23512      3.61324         0.001076     -0.000000     -0.101849
      3.20213      3.23512      3.61324         0.000095     -0.000000     -0.107232
      0.00000      0.00000      0.37812         0.000535     -0.000000      0.831021
      3.20213      0.00000      0.37812         0.003089     -0.000000      0.821895
      1.60107      5.23080      4.85268        -0.052645     -0.029459     -0.042880
      4.80320      5.23080      4.85268         0.053867     -0.026594     -0.033961
      1.60107      1.99568      1.61756        -0.052005     -0.075751     -0.671983
      4.80320      1.99568      1.61756         0.054698     -0.075531     -0.672345
      0.00000      3.23512      6.09212         0.025433     -0.000000      0.353289
      3.20213      3.23512      6.09212        -0.021011     -0.000000      0.363306
      0.00000      0.00000      2.85700        -0.009954     -0.000000      0.193392
      3.20213      0.00000      2.85700         0.016282     -0.000000      0.197015
      1.60107      1.23944      4.85268        -0.052645      0.029459     -0.042880
      4.80320      1.23944      4.85268         0.053867      0.026594     -0.033961
      1.60107      4.47456      1.61756        -0.052005      0.075751     -0.671983
      4.80320      4.47456      1.61756         0.054698      0.075531     -0.672345
     12.80489      3.23512     10.09010         0.002685     -0.000000     -0.013922
      3.20644      3.23512     10.08831        -0.003046     -0.000000     -0.009392
      0.00449      0.00000      6.85750         0.003193     -0.000000      0.001528
      3.19543      0.00000      6.85588        -0.002724     -0.000000      0.001376
      1.59852      5.23492     11.28768        -0.002410     -0.003899     -0.003666
      4.82100      5.23637     11.35790        -0.040927     -0.006882     -0.075227
      1.59930      1.99080      8.09827        -0.004271      0.000286     -0.001949
      4.80160      1.98980      8.08694        -0.001072     -0.000670      0.000426
     12.81086      3.23512     12.52309        -0.002226     -0.000000     -0.008539
      3.19958      3.23512     12.52488         0.006171     -0.000000     -0.000965
     12.80006      0.00000      9.35414         0.003207     -0.000000     -0.012408
      3.20827      0.00000      9.35526        -0.006374     -0.000000     -0.004076
      1.59852      1.23532     11.28768        -0.002410      0.003899     -0.003666
      4.82100      1.23388     11.35790        -0.040927      0.006882     -0.075227
      1.59930      4.47945      8.09827        -0.004271     -0.000286     -0.001949
      4.80160      4.48044      8.08694        -0.001072      0.000670      0.000426
      3.16840      0.00000     13.24227         0.001564     -0.000000     -0.003418
      0.03478      0.00000     13.23952        -0.003280     -0.000000     -0.012319
      8.00533      3.23512      4.85268        -0.007838     -0.000000     -0.330761
     11.20747      3.23512      4.85268         0.015160     -0.000000     -0.313042
      8.00533      0.00000      1.61756        -0.009408     -0.000000     -0.954091
     11.20747      0.00000      1.61756         0.012027     -0.000000     -0.953314
      6.40427      3.23512      1.61756         0.001687     -0.000000      1.567087
      9.60640      3.23512      1.61756         0.001195     -0.000000      1.578955
      6.40427      0.00000      4.85268         0.011691     -0.000000     -0.094000
      9.60640      0.00000      4.85268        -0.015721     -0.000000     -0.113113
      8.00379      3.23512     11.30118         0.004128     -0.000000      0.013309
     11.20151      3.23512     11.35072         0.007396     -0.000000     -0.008283
      8.00361      0.00000      8.09386        -0.001235     -0.000000     -0.020715
     11.21177      0.00000      8.09335        -0.004044     -0.000000     -0.004753
      6.40093      3.23512      8.09219        -0.000991     -0.000000      0.002852
      9.60807      3.23512      8.09203        -0.002068     -0.000000      0.001668
      6.42679      0.00000     11.40499        -0.053779     -0.000000     -0.012632
      9.58177      0.00000     11.40217         0.045716     -0.000000     -0.003460
      6.40427      3.23512      3.61324        -0.002041     -0.000000     -0.106486
      9.60640      3.23512      3.61324         0.005107     -0.000000     -0.110703
      6.40427      0.00000      0.37812         0.003759     -0.000000      0.829322
      9.60640      0.00000      0.37812        -0.000284     -0.000000      0.820271
      8.00533      5.23080      4.85268        -0.052534     -0.025451     -0.039154
     11.20747      5.23080      4.85268         0.055636     -0.026543     -0.035167
      8.00533      1.99568      1.61756        -0.051814     -0.075273     -0.671598
     11.20747      1.99568      1.61756         0.055163     -0.075629     -0.672085
      6.40427      3.23512      6.09212        -0.005389     -0.000000      0.234832
      9.60640      3.23512      6.09212        -0.002397     -0.000000      0.239833
      6.40427      0.00000      2.85700        -0.003111     -0.000000      0.184829
      9.60640      0.00000      2.85700         0.008656     -0.000000      0.187090
      8.00533      1.23944      4.85268        -0.052534      0.025451     -0.039154
     11.20747      1.23944      4.85268         0.055636      0.026543     -0.035167
      8.00533      4.47456      1.61756        -0.051814      0.075273     -0.671598
     11.20747      4.47456      1.61756         0.055163      0.075629     -0.672085
      6.39294      3.23512     10.06826         0.003950     -0.000000      0.002586
      9.61588      3.23512     10.06932        -0.006495     -0.000000      0.006032
      6.40295      0.00000      6.85531        -0.007769     -0.000000     -0.009407
      9.60617      0.00000      6.85299         0.011099     -0.000000     -0.006391
      8.00230      5.22618     11.16008         0.002751      0.015843      0.149568
     11.18887      5.23677     11.36197         0.042908     -0.011535     -0.079456
      8.00222      1.99197      8.08158        -0.001396     -0.002086     -0.002759
     11.21113      1.99088      8.08426         0.003649     -0.000229      0.002872
      6.43026      3.23512     12.50172        -0.026096     -0.000000      0.019822
      9.57539      3.23512     12.50404         0.014462     -0.000000     -0.008011
      6.38682      0.00000      9.33110         0.043883     -0.000000     -0.000680
      9.62092      0.00000      9.32883        -0.027231     -0.000000     -0.019267
      8.00230      1.24406     11.16008         0.002751     -0.015843      0.149568
     11.18887      1.23348     11.36197         0.042908      0.011535     -0.079456
      8.00222      4.47827      8.08158        -0.001396      0.002086     -0.002759
     11.21113      4.47936      8.08426         0.003649      0.000229      0.002872
      9.32755      0.00000     13.18244         0.536075     -0.000000      0.063754
      6.68327      0.00000     13.18463        -0.565966     -0.000000      0.059115
 -----------------------------------------------------------------------------------
    total drift:                               -0.152801      0.000000      0.109983


--------------------------------------------------------------------------------------------------------



  FREE ENERGIE OF THE ION-ELECTRON SYSTEM (eV)
  ---------------------------------------------------
  free  energy   TOTEN  =      -637.80747829 eV

  energy  without entropy=     -637.74781283  energy(sigma->0) =     -637.77764556
 
 d Force = 0.5274061E-03[ 0.442E-03, 0.613E-03]  d Energy = 0.5204535E-03 0.695E-05
 d Force = 0.4853205E+00[ 0.486E+00, 0.485E+00]  d Ewald  = 0.4853219E+00-0.144E-05


--------------------------------------------------------------------------------------------------------


    POTLOK:  cpu time    0.6586: real time    0.6603


--------------------------------------------------------------------------------------------------------


 NEB: the previous image is higher in energy: F
 NEB: the next image is higher in energy    : T
 NEB: only next energy greater

 NEB: Tangent
 ----------------------------------------------
      0.00000      0.00000      0.00000
      0.00000      0.00000      0.00000
      0.00000      0.00000      0.00000
      0.00000      0.00000      0.00000
      0.00000      0.00000      0.00000
      0.00000      0.00000      0.00000
      0.00000      0.00000      0.00000
      0.00000      0.00000      0.00000
      0.00050      0.00000      0.00471
      0.00536      0.00000      0.01213
     -0.00157      0.00000      0.00723
     -0.00868      0.00000     -0.00072
     -0.00001      0.00000      0.00572
     -0.00269      0.00000      0.00321
     -0.01403      0.00000      0.01865
      0.00843      0.00000      0.01532
      0.00000      0.00000      0.00000
      0.00000      0.00000      0.00000
      0.00000      0.00000      0.00000
      0.00000      0.00000      0.00000
      0.00000      0.00000      0.00000
      0.00000      0.00000      0.00000
      0.00000      0.00000      0.00000
      0.00000      0.00000      0.00000
      0.00000      0.00000      0.00000
      0.00000      0.00000      0.00000
      0.00000      0.00000      0.00000
      0.00000      0.00000      0.00000
      0.00000      0.00000      0.00000
      0.00000      0.00000      0.00000
      0.00000      0.00000      0.00000
      0.00000      0.00000      0.00000
     -0.00568      0.00000      0.01199
      0.00678      0.00000      0.00645
      0.00049      0.00000     -0.00015
     -0.00530      0.00000      0.00012
     -0.00063      0.00347      0.00523
      0.04017      0.01095      0.07870
     -0.00281     -0.00116      0.00662
     -0.00330      0.00135      0.00004
      0.00219      0.00000      0.00802
      0.00128      0.00000      0.00562
     -0.00799      0.00000      0.01529
      0.00519      0.00000      0.01187
     -0.00063     -0.00347      0.00523
      0.04017     -0.01095      0.07870
     -0.00281      0.00116      0.00662
     -0.00330     -0.00135      0.00004
     -0.00565      0.00000      0.01692
      0.01143      0.00000      0.02092
      0.00000      0.00000      0.00000
      0.00000      0.00000      0.00000
      0.00000      0.00000      0.00000
      0.00000      0.00000      0.00000
      0.00000      0.00000      0.00000
      0.00000      0.00000      0.00000
      0.00000      0.00000      0.00000
      0.00000      0.00000      0.00000
     -0.00095      0.00000     -0.03191
     -0.00658      0.00000      0.02075
     -0.00158      0.00000      0.01894
      0.00403      0.00000      0.00025
     -0.00386      0.00000     -0.00282
      0.00171      0.00000     -0.00113
      0.04945      0.00000     -0.00071
     -0.05572      0.00000      0.00366
      0.00000      0.00000      0.00000
      0.00000      0.00000      0.00000
      0.00000      0.00000      0.00000
      0.00000      0.00000      0.00000
      0.00000      0.00000      0.00000
      0.00000      0.00000      0.00000
      0.00000      0.00000      0.00000
      0.00000      0.00000      0.00000
      0.00000      0.00000      0.00000
      0.00000      0.00000      0.00000
      0.00000      0.00000      0.00000
      0.00000      0.00000      0.00000
      0.00000      0.00000      0.00000
      0.00000      0.00000      0.00000
      0.00000      0.00000      0.00000
      0.00000      0.00000      0.00000
     -0.01419      0.00000     -0.00835
      0.01145      0.00000     -0.00389
      0.00210      0.00000      0.00597
     -0.00715      0.00000      0.00294
     -0.00177     -0.02374     -0.19823
     -0.04878      0.00946      0.09909
     -0.00111      0.00177     -0.00074
      0.00338      0.00074      0.00200
      0.02068      0.00000     -0.00854
     -0.02462      0.00000     -0.00266
     -0.04155      0.00000      0.00580
      0.03496      0.00000      0.00882
     -0.00177      0.02374     -0.19823
     -0.04878     -0.00946      0.09909
     -0.00111     -0.00177     -0.00074
      0.00338     -0.00074      0.00200
     -0.64175      0.00000     -0.08714
      0.65988      0.00000     -0.09793

 NEB: forces: par spring, perp REAL, dneb     0.002865    0.068804    0.000000
 NEB: distance to prev, next image, angle between     0.235112    0.234539  167.813122
 NEB: projections on to tangent (spring, REAL)    -0.002865   -0.836387

 stress matrix after NEB project (eV)
    -21.84837      0.00000      0.05649
      0.00000     -7.32607      0.00000
      0.05649      0.00000     -6.63682
  FORCES: max atom, RMS     0.027585    0.006886
  FORCE total and by dimension    0.068864    0.022509
  Stress total and by dimension   23.980750   21.848374
 Quasi-Newton relaxation of ions (Broydens 2nd method)
  g(Force)  = 0.232E-02   g(Stress)= 0.000E+00

 retain information from N= 10 steps
 eigenvalues of (default step * inverse Hessian matrix)
  average eigenvalue of G=   2.3254
 eigenvalue spectrum of G is  7.6994  7.6994  1.8815  1.8815  0.8975  0.8975  0.5983  0.5983  0.5504  0.5504


--------------------------------------------------------------------------------------------------------


  
 reached required accuracy - stopping structural energy minimisation
     LOOP+:  cpu time  465.9796: real time  467.2686
    4ORBIT:  cpu time    0.0000: real time    0.0000

 total amount of memory used by VASP MPI-rank0   511741. kBytes
=======================================================================

   base      :      30000. kBytes
   nonlr-proj:      12771. kBytes
   fftplans  :      18109. kBytes
   grid      :      50594. kBytes
   one-center:       1555. kBytes
   wavefun   :     398712. kBytes
 
  
  
 General timing and accounting informations for this job:
 ========================================================
  
                  Total CPU time used (sec):    17124.266
                            User time (sec):    16031.702
                          System time (sec):     1092.565
                         Elapsed time (sec):    17169.964
  
                   Maximum memory used (kb):      627652.
                   Average memory used (kb):           0.
  
                          Minor page faults:      2915442
                          Major page faults:          144
                 Voluntary context switches:         5403
