 vasp.5.4.4.18Apr17-6-g9f103f2a35 (build Feb 25 2019 10:51:38) complex          
  
 executed on             LinuxIFC date 2022.11.21  15:41:59
 running on   40 total cores
 each image running on    8 cores
 distrk:  each k-point on    8 cores,    1 groups
 distr:  one band on NCORES_PER_BAND=   2 cores,    4 groups


--------------------------------------------------------------------------------------------------------


 INCAR:
 POTCAR:    PAW_PBE Ir 06Sep2000                  
 POTCAR:    PAW_PBE O 08Apr2002                   
 POTCAR:    PAW_PBE Ir 06Sep2000                  
 POTCAR:    PAW_PBE O 08Apr2002                   
 POTCAR:    PAW_PBE Ir 06Sep2000                  
   VRHFIN =Ir: s1d8                                                             
   LEXCH  = PE                                                                  
   EATOM  =   560.1833 eV,   41.1723 Ry                                         
                                                                                
   TITEL  = PAW_PBE Ir 06Sep2000                                                
   LULTRA =        F    use ultrasoft PP ?                                      
   IUNSCR =        1    unscreen: 0-lin 1-nonlin 2-no                           
   RPACOR =    2.250    partial core radius                                     
   POMASS =  192.220; ZVAL   =    9.000    mass and valenz                      
   RCORE  =    2.600    outmost cutoff radius                                   
   RWIGS  =    2.690; RWIGS  =    1.423    wigner-seitz radius (au A)           
   ENMAX  =  210.864; ENMIN  =  158.148 eV                                      
   RCLOC  =    1.857    cutoff for local pot                                    
   LCOR   =        T    correct aug charges                                     
   LPAW   =        T    paw PP                                                  
   EAUG   =  318.962                                                            
   DEXC   =    0.000                                                            
   RMAX   =    2.667    core radius for proj-oper                               
   RAUG   =    1.300    factor for augmentation sphere                          
   RDEP   =    2.748    radius for radial grids                                 
   RDEPT  =    2.300    core radius for aug-charge                              
                                                                                
   Atomic configuration                                                         
   16 entries                                                                   
     n  l   j            E        occ.                                          
     1  0  0.50    -76100.0449   2.0000                                         
     2  0  0.50    -13308.1683   2.0000                                         
     2  1  1.50    -11558.0021   6.0000                                         
     3  0  0.50     -3110.7274   2.0000                                         
     3  1  1.50     -2599.2109   6.0000                                         
     3  2  2.50     -2037.1515  10.0000                                         
     4  0  0.50      -661.6001   2.0000                                         
     4  1  1.50      -493.8981   6.0000                                         
     4  2  2.50      -288.1909  10.0000                                         
     4  3  3.50       -59.5718  14.0000                                         
     5  0  0.50       -95.3879   2.0000                                         
     5  1  1.50       -52.2747   6.0000                                         
     5  2  2.50        -5.4180   8.0000                                         
     6  0  0.50        -5.5479   1.0000                                         
     6  1  1.50        -6.8029   0.0000                                         
     5  3  2.50        -1.3606   0.0000                                         
   Description                                                                  
     l       E           TYP  RCUT    TYP  RCUT                                 
     2     -5.4179967     23  2.600                                             
     2     -6.7785793     23  2.600                                             
     0     -5.5478636     23  2.600                                             
     0      2.2542272     23  2.600                                             
     1     -2.7211652     23  2.600                                             
     1     20.4087390     23  2.600                                             
  local pseudopotential read in
  partial core-charges read in
  partial kinetic energy density read in
  atomic valenz-charges read in
  non local Contribution for L=           2  read in
    real space projection operators read in
  non local Contribution for L=           2  read in
    real space projection operators read in
  non local Contribution for L=           0  read in
    real space projection operators read in
  non local Contribution for L=           0  read in
    real space projection operators read in
  non local Contribution for L=           1  read in
    real space projection operators read in
  non local Contribution for L=           1  read in
    real space projection operators read in
    PAW grid and wavefunctions read in
 
   number of l-projection  operators is LMAX  =           6
   number of lm-projection operators is LMMAX =          18
 
 POTCAR:    PAW_PBE O 08Apr2002                   
   VRHFIN =O: s2p4                                                              
   LEXCH  = PE                                                                  
   EATOM  =   432.3788 eV,   31.7789 Ry                                         
                                                                                
   TITEL  = PAW_PBE O 08Apr2002                                                 
   LULTRA =        F    use ultrasoft PP ?                                      
   IUNSCR =        1    unscreen: 0-lin 1-nonlin 2-no                           
   RPACOR =    1.200    partial core radius                                     
   POMASS =   16.000; ZVAL   =    6.000    mass and valenz                      
   RCORE  =    1.520    outmost cutoff radius                                   
   RWIGS  =    1.550; RWIGS  =    0.820    wigner-seitz radius (au A)           
   ENMAX  =  400.000; ENMIN  =  300.000 eV                                      
   ICORE  =        2    local potential                                         
   LCOR   =        T    correct aug charges                                     
   LPAW   =        T    paw PP                                                  
   EAUG   =  605.392                                                            
   DEXC   =    0.000                                                            
   RMAX   =    1.553    core radius for proj-oper                               
   RAUG   =    1.300    factor for augmentation sphere                          
   RDEP   =    1.550    radius for radial grids                                 
   RDEPT  =    1.329    core radius for aug-charge                              
                                                                                
   Atomic configuration                                                         
    4 entries                                                                   
     n  l   j            E        occ.                                          
     1  0  0.50      -514.6923   2.0000                                         
     2  0  0.50       -23.9615   2.0000                                         
     2  1  0.50        -9.0305   4.0000                                         
     3  2  1.50        -9.5241   0.0000                                         
   Description                                                                  
     l       E           TYP  RCUT    TYP  RCUT                                 
     0    -23.9615318     23  1.200                                             
     0     -9.5240782     23  1.200                                             
     1     -9.0304911     23  1.520                                             
     1      8.1634956     23  1.520                                             
     2     -9.5240782      7  1.500                                             
  local pseudopotential read in
  partial core-charges read in
  partial kinetic energy density read in
  kinetic energy density of atom read in
  atomic valenz-charges read in
  non local Contribution for L=           0  read in
    real space projection operators read in
  non local Contribution for L=           0  read in
    real space projection operators read in
  non local Contribution for L=           1  read in
    real space projection operators read in
  non local Contribution for L=           1  read in
    real space projection operators read in
    PAW grid and wavefunctions read in
 
   number of l-projection  operators is LMAX  =           4
   number of lm-projection operators is LMMAX =           8
 
 POTCAR:    PAW_PBE Ir 06Sep2000                  
   VRHFIN =Ir: s1d8                                                             
   LEXCH  = PE                                                                  
   EATOM  =   560.1833 eV,   41.1723 Ry                                         
                                                                                
   TITEL  = PAW_PBE Ir 06Sep2000                                                
   LULTRA =        F    use ultrasoft PP ?                                      
   IUNSCR =        1    unscreen: 0-lin 1-nonlin 2-no                           
   RPACOR =    2.250    partial core radius                                     
   POMASS =  192.220; ZVAL   =    9.000    mass and valenz                      
   RCORE  =    2.600    outmost cutoff radius                                   
   RWIGS  =    2.690; RWIGS  =    1.423    wigner-seitz radius (au A)           
   ENMAX  =  210.864; ENMIN  =  158.148 eV                                      
   RCLOC  =    1.857    cutoff for local pot                                    
   LCOR   =        T    correct aug charges                                     
   LPAW   =        T    paw PP                                                  
   EAUG   =  318.962                                                            
   DEXC   =    0.000                                                            
   RMAX   =    2.667    core radius for proj-oper                               
   RAUG   =    1.300    factor for augmentation sphere                          
   RDEP   =    2.748    radius for radial grids                                 
   RDEPT  =    2.300    core radius for aug-charge                              
                                                                                
   Atomic configuration                                                         
   16 entries                                                                   
     n  l   j            E        occ.                                          
     1  0  0.50    -76100.0449   2.0000                                         
     2  0  0.50    -13308.1683   2.0000                                         
     2  1  1.50    -11558.0021   6.0000                                         
     3  0  0.50     -3110.7274   2.0000                                         
     3  1  1.50     -2599.2109   6.0000                                         
     3  2  2.50     -2037.1515  10.0000                                         
     4  0  0.50      -661.6001   2.0000                                         
     4  1  1.50      -493.8981   6.0000                                         
     4  2  2.50      -288.1909  10.0000                                         
     4  3  3.50       -59.5718  14.0000                                         
     5  0  0.50       -95.3879   2.0000                                         
     5  1  1.50       -52.2747   6.0000                                         
     5  2  2.50        -5.4180   8.0000                                         
     6  0  0.50        -5.5479   1.0000                                         
     6  1  1.50        -6.8029   0.0000                                         
     5  3  2.50        -1.3606   0.0000                                         
   Description                                                                  
     l       E           TYP  RCUT    TYP  RCUT                                 
     2     -5.4179967     23  2.600                                             
     2     -6.7785793     23  2.600                                             
     0     -5.5478636     23  2.600                                             
     0      2.2542272     23  2.600                                             
     1     -2.7211652     23  2.600                                             
     1     20.4087390     23  2.600                                             
  local pseudopotential read in
  partial core-charges read in
  partial kinetic energy density read in
  atomic valenz-charges read in
  non local Contribution for L=           2  read in
    real space projection operators read in
  non local Contribution for L=           2  read in
    real space projection operators read in
  non local Contribution for L=           0  read in
    real space projection operators read in
  non local Contribution for L=           0  read in
    real space projection operators read in
  non local Contribution for L=           1  read in
    real space projection operators read in
  non local Contribution for L=           1  read in
    real space projection operators read in
    PAW grid and wavefunctions read in
 
   number of l-projection  operators is LMAX  =           6
   number of lm-projection operators is LMMAX =          18
 
 POTCAR:    PAW_PBE O 08Apr2002                   
   VRHFIN =O: s2p4                                                              
   LEXCH  = PE                                                                  
   EATOM  =   432.3788 eV,   31.7789 Ry                                         
                                                                                
   TITEL  = PAW_PBE O 08Apr2002                                                 
   LULTRA =        F    use ultrasoft PP ?                                      
   IUNSCR =        1    unscreen: 0-lin 1-nonlin 2-no                           
   RPACOR =    1.200    partial core radius                                     
   POMASS =   16.000; ZVAL   =    6.000    mass and valenz                      
   RCORE  =    1.520    outmost cutoff radius                                   
   RWIGS  =    1.550; RWIGS  =    0.820    wigner-seitz radius (au A)           
   ENMAX  =  400.000; ENMIN  =  300.000 eV                                      
   ICORE  =        2    local potential                                         
   LCOR   =        T    correct aug charges                                     
   LPAW   =        T    paw PP                                                  
   EAUG   =  605.392                                                            
   DEXC   =    0.000                                                            
   RMAX   =    1.553    core radius for proj-oper                               
   RAUG   =    1.300    factor for augmentation sphere                          
   RDEP   =    1.550    radius for radial grids                                 
   RDEPT  =    1.329    core radius for aug-charge                              
                                                                                
   Atomic configuration                                                         
    4 entries                                                                   
     n  l   j            E        occ.                                          
     1  0  0.50      -514.6923   2.0000                                         
     2  0  0.50       -23.9615   2.0000                                         
     2  1  0.50        -9.0305   4.0000                                         
     3  2  1.50        -9.5241   0.0000                                         
   Description                                                                  
     l       E           TYP  RCUT    TYP  RCUT                                 
     0    -23.9615318     23  1.200                                             
     0     -9.5240782     23  1.200                                             
     1     -9.0304911     23  1.520                                             
     1      8.1634956     23  1.520                                             
     2     -9.5240782      7  1.500                                             
  local pseudopotential read in
  partial core-charges read in
  partial kinetic energy density read in
  kinetic energy density of atom read in
  atomic valenz-charges read in
  non local Contribution for L=           0  read in
    real space projection operators read in
  non local Contribution for L=           0  read in
    real space projection operators read in
  non local Contribution for L=           1  read in
    real space projection operators read in
  non local Contribution for L=           1  read in
    real space projection operators read in
    PAW grid and wavefunctions read in
 
   number of l-projection  operators is LMAX  =           4
   number of lm-projection operators is LMMAX =           8
 
 Optimization of the real space projectors (new method)

 maximal supplied QI-value         = 14.36
 optimisation between [QCUT,QGAM] = [ 11.35, 22.84] = [ 36.05,146.02] Ry 
 Optimized for a Real-space Cutoff    1.52 Angstroem

   l    n(q)    QCUT    max X(q) W(low)/X(q) W(high)/X(q)  e(spline) 
   2      9    11.346   134.116    0.47E-03    0.13E-03    0.92E-06
   2      9    11.346   130.192    0.47E-03    0.13E-03    0.92E-06
   0     10    11.346    60.310    0.74E-04    0.13E-03    0.69E-06
   0     10    11.346    39.218    0.68E-04    0.12E-03    0.65E-06
   1     10    11.346    18.439    0.15E-03    0.34E-04    0.20E-06
   1     10    11.346    12.760    0.12E-03    0.31E-04    0.16E-06
 Optimization of the real space projectors (new method)

 maximal supplied QI-value         = 24.76
 optimisation between [QCUT,QGAM] = [ 11.39, 22.77] = [ 36.31,145.25] Ry 
 Optimized for a Real-space Cutoff    1.00 Angstroem

   l    n(q)    QCUT    max X(q) W(low)/X(q) W(high)/X(q)  e(spline) 
   0      7    11.387    20.381    0.39E-03    0.13E-02    0.15E-06
   0      7    11.387    15.268    0.42E-03    0.14E-02    0.17E-06
   1      6    11.387     5.964    0.41E-03    0.11E-02    0.17E-06
   1      6    11.387     5.382    0.39E-03    0.87E-03    0.15E-06
 Optimization of the real space projectors (new method)

 maximal supplied QI-value         = 14.36
 optimisation between [QCUT,QGAM] = [ 11.35, 22.84] = [ 36.05,146.02] Ry 
 Optimized for a Real-space Cutoff    1.52 Angstroem

   l    n(q)    QCUT    max X(q) W(low)/X(q) W(high)/X(q)  e(spline) 
   2      9    11.346   134.116    0.47E-03    0.13E-03    0.92E-06
   2      9    11.346   130.192    0.47E-03    0.13E-03    0.92E-06
   0     10    11.346    60.310    0.74E-04    0.13E-03    0.69E-06
   0     10    11.346    39.218    0.68E-04    0.12E-03    0.65E-06
   1     10    11.346    18.439    0.15E-03    0.34E-04    0.20E-06
   1     10    11.346    12.760    0.12E-03    0.31E-04    0.16E-06
 Optimization of the real space projectors (new method)

 maximal supplied QI-value         = 24.76
 optimisation between [QCUT,QGAM] = [ 11.39, 22.77] = [ 36.31,145.25] Ry 
 Optimized for a Real-space Cutoff    1.00 Angstroem

   l    n(q)    QCUT    max X(q) W(low)/X(q) W(high)/X(q)  e(spline) 
   0      7    11.387    20.381    0.39E-03    0.13E-02    0.15E-06
   0      7    11.387    15.268    0.42E-03    0.14E-02    0.17E-06
   1      6    11.387     5.964    0.41E-03    0.11E-02    0.17E-06
   1      6    11.387     5.382    0.39E-03    0.87E-03    0.15E-06

 ----------------------------------------------------------------------------- 
|                                                                             |
|  ADVICE TO THIS USER RUNNING 'VASP/VAMP'   (HEAR YOUR MASTER'S VOICE ...):  |
|                                                                             |
|      You enforced a specific xc-type in the INCAR file,                     |
|      a different type was found on the POTCAR file                          |
|          I HOPE YOU KNOW, WHAT YOU ARE  DOING                               |
|                                                                             |
 ----------------------------------------------------------------------------- 

  PAW_PBE Ir 06Sep2000                  :
 energy of atom  1       EATOM= -560.1833
 kinetic energy error for atom=    0.0018 (will be added to EATOM!!)
  PAW_PBE O 08Apr2002                   :
 energy of atom  2       EATOM= -432.3788
 kinetic energy error for atom=    0.0224 (will be added to EATOM!!)
  PAW_PBE Ir 06Sep2000                  :
 energy of atom  3       EATOM= -560.1833
 kinetic energy error for atom=    0.0018 (will be added to EATOM!!)
  PAW_PBE O 08Apr2002                   :
 energy of atom  4       EATOM= -432.3788
 kinetic energy error for atom=    0.0224 (will be added to EATOM!!)
 
 
 POSCAR: Ir  O Ir  O                             
  positions in cartesian coordinates
  No initial velocities read in
 exchange correlation table for  LEXCH =        9
   RHO(1)=    0.500       N(1)  =     2000
   RHO(2)=  100.500       N(2)  =     4000

 VTST: version 3.2, (02/03/18)

 CHAIN: initializing optimizer
 
 OPT: Using VASP QUASI-newton optimizer
 CHAIN: Read ICHAIN            0
 CHAIN: Running the NEB
 NEB:          SPRING     -5.000000
 NEB:          LCLIMB      T
 NEB:     LTANGENTOLD      F
 NEB:           LDNEB      F
 NEB:        LDNEBORG      F
 NEB:        LNEBCELL      F
 NEB:          EFIRST      0.000000
 NEB:           ELAST      0.000000
 
 POSCAR: Ir  O Ir  O                             
  positions in cartesian coordinates
  No initial velocities read in
 
 POSCAR: Ir  O Ir  O                             
  positions in cartesian coordinates
  No initial velocities read in
 


--------------------------------------------------------------------------------------------------------


 ion  position               nearest neighbor table
   1  0.125  0.500  0.188-  21 2.00  29 2.00  17 2.02  25 2.02  26 2.02  18 2.02   2 3.20  52 3.20

   2  0.375  0.500  0.188-  22 2.00  30 2.00  26 2.02  18 2.02  67 2.02  75 2.02   1 3.20  51 3.20

   3  0.125  0.000  0.062-  23 2.00  31 2.00  19 2.02  27 2.02  28 2.02  20 2.02   4 3.20  54 3.20

   4  0.375  0.000  0.062-  24 2.00  32 2.00  28 2.02  20 2.02  69 2.02  77 2.02   3 3.20  53 3.20

   5  0.000  0.500  0.062-  17 2.00  23 2.02  31 2.02  74 2.02  82 2.02   6 3.20  56 3.20
   6  0.250  0.500  0.062-  18 2.00  23 2.02  24 2.02  31 2.02  32 2.02   5 3.20  55 3.20
   7  0.000  0.000  0.188-  27 2.00  35 2.00  29 2.02  21 2.02  72 2.02  80 2.02   8 3.20  58 3.20

   8  0.250  0.000  0.188-  28 2.00  36 2.00  21 2.02  29 2.02  30 2.02  22 2.02   7 3.20  57 3.20

   9  0.125  0.500  0.438-  41 1.99  42 1.99  37 2.00  45 2.00  33 2.03  34 2.03  10 3.20  60 3.20

  10  0.375  0.500  0.439-  42 1.99  91 1.99  46 2.00  38 2.00  83 2.04  34 2.04  59 3.20   9 3.20

  11  0.125  0.000  0.313-  39 1.99  47 1.99  36 2.03  35 2.03  44 2.04  43 2.04  62 3.19  12 3.19

  12  0.374  0.000  0.313-  40 1.99  48 1.99  93 2.00  36 2.02  44 2.02  85 2.03  11 3.19  61 3.22

  13  0.000  0.500  0.313-  33 1.99  25 2.01  98 2.02  90 2.02  39 2.02  47 2.02  14 3.20  64 3.20

  14  0.250  0.500  0.313-  34 1.99  26 2.01  48 2.03  40 2.03  47 2.03  39 2.03  13 3.20  63 3.20

  15  0.999  0.000  0.442-  50 1.80  88 2.04  96 2.04  45 2.04  37 2.04  43 2.09  16 3.24  66 3.25

  16  0.251  0.000  0.442-  49 1.79  46 2.04  38 2.04  37 2.04  45 2.04  44 2.10  15 3.24  65 3.25

  17  0.000  0.500  0.140-   5 2.00   1 2.02  52 2.02
  18  0.250  0.500  0.140-   6 2.00   2 2.02   1 2.02
  19  0.000  0.000  0.015-   3 2.02  54 2.02
  20  0.250  0.000  0.015-   3 2.02   4 2.02
  21  0.125  0.808  0.188-   1 2.00   7 2.02   8 2.02
  22  0.375  0.808  0.188-   2 2.00   8 2.02  57 2.02
  23  0.125  0.308  0.062-   3 2.00   5 2.02   6 2.02
  24  0.375  0.308  0.062-   4 2.00   6 2.02  55 2.02
  25  0.000  0.500  0.235-  13 2.01   1 2.02  52 2.02
  26  0.250  0.500  0.235-  14 2.01   2 2.02   1 2.02
  27  0.000  0.000  0.110-   7 2.00   3 2.02  54 2.02
  28  0.250  0.000  0.110-   8 2.00   4 2.02   3 2.02
  29  0.125  0.192  0.188-   1 2.00   7 2.02   8 2.02
  30  0.375  0.192  0.188-   2 2.00   8 2.02  57 2.02
  31  0.125  0.692  0.062-   3 2.00   5 2.02   6 2.02
  32  0.375  0.692  0.062-   4 2.00   6 2.02  55 2.02
  33  1.000  0.500  0.390-  13 1.99   9 2.03  60 2.04
  34  0.250  0.500  0.390-  14 1.99   9 2.03  10 2.04
  35  0.001  0.000  0.265-   7 2.00  62 2.02  11 2.03
  36  0.249  0.000  0.265-   8 2.00  12 2.02  11 2.03
  37  0.125  0.809  0.436-   9 2.00  15 2.04  16 2.04
  38  0.378  0.809  0.440-  10 2.00  16 2.04  65 2.05
  39  0.125  0.308  0.313-  11 1.99  13 2.02  14 2.03
  40  0.375  0.308  0.312-  12 1.99  14 2.03  63 2.03
  41  0.000  0.500  0.484-  60 1.99   9 1.99
  42  0.250  0.500  0.484-  10 1.99   9 1.99
  43  0.999  0.000  0.361-  62 2.02  11 2.04  15 2.09
  44  0.250  0.000  0.361-  12 2.02  11 2.04  16 2.10
  45  0.125  0.191  0.436-   9 2.00  15 2.04  16 2.04
  46  0.378  0.191  0.440-  10 2.00  16 2.04  65 2.05
  47  0.125  0.692  0.313-  11 1.99  13 2.02  14 2.03
  48  0.375  0.692  0.312-  12 1.99  14 2.03  63 2.03
  49  0.247  0.000  0.512-  16 1.79
  50  0.003  0.000  0.512-  15 1.80
  51  0.625  0.500  0.188-  71 2.00  79 2.00  67 2.02  75 2.02  76 2.02  68 2.02   2 3.20  52 3.20

  52  0.875  0.500  0.188-  72 2.00  80 2.00  68 2.02  17 2.02  76 2.02  25 2.02   1 3.20  51 3.20

  53  0.625  0.000  0.062-  73 2.00  81 2.00  69 2.02  77 2.02  78 2.02  70 2.02   4 3.20  54 3.20

  54  0.875  0.000  0.062-  74 2.00  82 2.00  70 2.02  19 2.02  78 2.02  27 2.02   3 3.20  53 3.20

  55  0.500  0.500  0.062-  67 2.00  32 2.02  24 2.02  73 2.02  81 2.02  56 3.20   6 3.20
  56  0.750  0.500  0.062-  68 2.00  73 2.02  74 2.02  81 2.02  82 2.02  55 3.20   5 3.20
  57  0.500  0.000  0.188-  77 2.00  85 2.00  71 2.02  22 2.02  79 2.02  30 2.02   8 3.20  58 3.20

  58  0.750  0.000  0.188-  78 2.00  86 2.00  71 2.02  79 2.02  80 2.02  72 2.02   7 3.20  57 3.20

  59  0.625  0.500  0.436-  87 1.98  95 1.98  91 1.99  92 1.99  83 2.03  84 2.03  10 3.20  60 3.20

  60  0.875  0.500  0.439-  41 1.99  92 1.99  88 2.00  96 2.00  84 2.04  33 2.04  59 3.20   9 3.20

  61  0.625  0.000  0.313-  89 1.99  97 1.99  85 2.03  86 2.03  94 2.05  93 2.05  12 3.22  62 3.22

  62  0.876  0.000  0.313-  90 1.99  98 1.99  94 2.00  35 2.02  43 2.02  86 2.04  11 3.19  61 3.22

  63  0.500  0.500  0.313-  83 1.98  75 2.00  48 2.03  40 2.03  89 2.03  97 2.03  14 3.20  64 3.21

  64  0.750  0.500  0.313-  84 1.98  76 2.00  98 2.03  90 2.03  97 2.03  89 2.03  13 3.20  63 3.21

  65  0.505  0.000  0.439- 100 1.99  95 2.00  87 2.00  93 2.03  38 2.05  46 2.05  66 3.08  16 3.25

  66  0.745  0.000  0.439-  99 1.98  95 2.00  87 2.00  94 2.03  96 2.05  88 2.05  65 3.08  15 3.25

  67  0.500  0.500  0.140-  55 2.00  51 2.02   2 2.02
  68  0.750  0.500  0.140-  56 2.00  52 2.02  51 2.02
  69  0.500  0.000  0.015-   4 2.02  53 2.02
  70  0.750  0.000  0.015-  53 2.02  54 2.02
  71  0.625  0.808  0.188-  51 2.00  57 2.02  58 2.02
  72  0.875  0.808  0.188-  52 2.00   7 2.02  58 2.02
  73  0.625  0.308  0.062-  53 2.00  55 2.02  56 2.02
  74  0.875  0.308  0.062-  54 2.00   5 2.02  56 2.02
  75  0.500  0.500  0.235-  63 2.00  51 2.02   2 2.02
  76  0.750  0.500  0.235-  64 2.00  52 2.02  51 2.02
  77  0.500  0.000  0.110-  57 2.00  53 2.02   4 2.02
  78  0.750  0.000  0.110-  58 2.00  54 2.02  53 2.02
  79  0.625  0.192  0.188-  51 2.00  57 2.02  58 2.02
  80  0.875  0.192  0.188-  52 2.00   7 2.02  58 2.02
  81  0.625  0.692  0.062-  53 2.00  55 2.02  56 2.02
  82  0.875  0.692  0.062-  54 2.00   5 2.02  56 2.02
  83  0.498  0.500  0.389-  63 1.98  59 2.03  10 2.04
  84  0.752  0.500  0.389-  64 1.98  59 2.03  60 2.04
  85  0.500  0.000  0.265-  57 2.00  61 2.03  12 2.03
  86  0.750  0.000  0.265-  58 2.00  61 2.03  62 2.04
  87  0.625  0.805  0.430-  59 1.98  65 2.00  66 2.00
  88  0.872  0.809  0.440-  60 2.00  15 2.04  66 2.05
  89  0.625  0.308  0.312-  61 1.99  63 2.03  64 2.03
  90  0.876  0.308  0.312-  62 1.99  13 2.02  64 2.03
  91  0.502  0.500  0.483-  59 1.99  10 1.99
  92  0.748  0.500  0.483-  59 1.99  60 1.99
  93  0.496  0.000  0.360-  12 2.00  65 2.03  61 2.05
  94  0.753  0.000  0.360-  62 2.00  66 2.03  61 2.05
  95  0.625  0.195  0.430-  59 1.98  65 2.00  66 2.00
  96  0.872  0.191  0.440-  60 2.00  15 2.04  66 2.05
  97  0.625  0.692  0.312-  61 1.99  63 2.03  64 2.03
  98  0.876  0.692  0.312-  62 1.99  13 2.02  64 2.03
  99  0.691  0.000  0.511- 100 1.69  66 1.98
 100  0.559  0.000  0.511-  99 1.69  65 1.99
 
  LATTYP: Found a simple orthorhombic cell.
 ALAT       =     6.4702430000
 B/A-ratio  =     1.9796060210
 C/A-ratio  =     4.0000000000
  
  Lattice vectors:
  
 A1 = (   0.0000000000,  -6.4702430000,   0.0000000000)
 A2 = ( -12.8085320000,   0.0000000000,   0.0000000000)
 A3 = (   0.0000000000,   0.0000000000, -25.8809720000)


Analysis of symmetry for initial positions (statically):
=====================================================================
 Subroutine PRICEL returns:
 Original cell was already a primitive cell.
 

 Routine SETGRP: Setting up the symmetry group for a 
 simple orthorhombic supercell.


 Subroutine GETGRP returns: Found  2 space group operations
 (whereof  2 operations were pure point group operations)
 out of a pool of  8 trial point group operations.


The static configuration has the point symmetry C_1h.


Analysis of symmetry for dynamics (positions and initial velocities):
=====================================================================
 Subroutine PRICEL returns:
 Original cell was already a primitive cell.
 

 Routine SETGRP: Setting up the symmetry group for a 
 simple orthorhombic supercell.


 Subroutine GETGRP returns: Found  2 space group operations
 (whereof  2 operations were pure point group operations)
 out of a pool of  8 trial point group operations.


The dynamic configuration has the point symmetry C_1h.


Analysis of constrained symmetry for selective dynamics:
=====================================================================
 Subroutine PRICEL returns:
 Original cell was already a primitive cell.
 

 Routine SETGRP: Setting up the symmetry group for a 
 simple orthorhombic supercell.


 Subroutine GETGRP returns: Found  2 space group operations
 (whereof  2 operations were pure point group operations)
 out of a pool of  8 trial point group operations.


The constrained configuration has the point symmetry C_1h.


Analysis of structural, dynamic, and magnetic symmetry:
=====================================================================
 Subroutine PRICEL returns:
 Original cell was already a primitive cell.
 

 Routine SETGRP: Setting up the symmetry group for a 
 simple orthorhombic supercell.


 Subroutine GETGRP returns: Found  2 space group operations
 (whereof  2 operations were pure point group operations)
 out of a pool of  8 trial point group operations.


The magnetic configuration has the point symmetry C_1h.


 Subroutine INISYM returns: Found  2 space group operations
 (whereof  2 operations are pure point group operations),
 and found     1 'primitive' translations

 
 
 KPOINTS: Automatic mesh                          

Automatic generation of k-mesh.
Space group operators:
 irot       det(A)        alpha          n_x          n_y          n_z        tau_x        tau_y        tau_z
    1     1.000000     0.000001     1.000000     0.000000     0.000000     0.000000     0.000000     0.000000
    2    -1.000000   180.000000     0.000000     1.000000     0.000000     0.000000     0.000000     0.000000
 
 Subroutine IBZKPT returns following result:
 ===========================================
 
 Found      4 irreducible k-points:
 
 Following reciprocal coordinates:
            Coordinates               Weight
  0.000000  0.000000  0.000000      1.000000
  0.333333  0.000000  0.000000      2.000000
  0.000000  0.333333  0.000000      2.000000
  0.333333  0.333333  0.000000      4.000000
 
 Following cartesian coordinates:
            Coordinates               Weight
  0.000000  0.000000  0.000000      1.000000
  0.026024  0.000000  0.000000      2.000000
  0.000000  0.051518  0.000000      2.000000
  0.026024  0.051518  0.000000      4.000000
 


--------------------------------------------------------------------------------------------------------




 Dimension of arrays:
   k-points           NKPTS =      4   k-points in BZ     NKDIM =      4   number of bands    NBANDS=    448
   number of dos      NEDOS =    301   number of ions     NIONS =    100
   non local maximal  LDIM  =      6   non local SUM 2l+1 LMDIM =     18
   total plane-waves  NPLWV = 362880
   max r-space proj   IRMAX =   2532   max aug-charges    IRDMAX=  12432
   dimension x,y,z NGX =    70 NGY =   36 NGZ =  144
   dimension x,y,z NGXF=   140 NGYF=   72 NGZF=  288
   support grid    NGXF=   140 NGYF=   72 NGZF=  288
   ions per type =              16  34  16  34
   NGX,Y,Z   is equivalent  to a cutoff of   9.09,  9.25,  9.25 a.u.
   NGXF,Y,Z  is equivalent  to a cutoff of  18.17, 18.50, 18.50 a.u.

 SYSTEM =  unknown system                          
 POSCAR =  Ir  O Ir  O                             

 Startparameter for this run:
   NWRITE =      2    write-flag & timer
   PREC   = normal    normal or accurate (medium, high low for compatibility)
   ISTART =      0    job   : 0-new  1-cont  2-samecut
   ICHARG =      2    charge: 1-file 2-atom 10-const
   ISPIN  =      2    spin polarized calculation?
   LNONCOLLINEAR =      F non collinear calculations
   LSORBIT =      F    spin-orbit coupling
   INIWAV =      1    electr: 0-lowe 1-rand  2-diag
   LASPH  =      F    aspherical Exc in radial PAW
   METAGGA=      F    non-selfconsistent MetaGGA calc.

 Electronic Relaxation 1
   ENCUT  =  500.0 eV  36.75 Ry    6.06 a.u.  23.35 11.80 47.19*2*pi/ulx,y,z
   ENINI  =  500.0     initial cutoff
   ENAUG  =  605.4 eV  augmentation charge cutoff
   NELM   =     60;   NELMIN=  4; NELMDL= -5     # of ELM steps 
   EDIFF  = 0.1E-04   stopping-criterion for ELM
   LREAL  =      T    real-space projection
   NLSPLINE    = F    spline interpolate recip. space projectors
   LCOMPAT=      F    compatible to vasp.4.4
   GGA_COMPAT  = T    GGA compatible to vasp.4.4-vasp.4.6
   LMAXPAW     = -100 max onsite density
   LMAXMIX     =    2 max onsite mixed and CHGCAR
   VOSKOWN=      0    Vosko Wilk Nusair interpolation
   ROPT   =   -0.00050  -0.00050  -0.00050  -0.00050
 Ionic relaxation
   EDIFFG = -.5E-01   stopping-criterion for IOM
   NSW    =    500    number of steps for IOM
   NBLOCK =      1;   KBLOCK =    500    inner block; outer block 
   IBRION =      1    ionic relax: 0-MD 1-quasi-New 2-CG
   NFREE  =      0    steps in history (QN), initial steepest desc. (CG)
   ISIF   =      2    stress and relaxation
   IWAVPR =     11    prediction:  0-non 1-charg 2-wave 3-comb
   ISYM   =      2    0-nonsym 1-usesym 2-fastsym
   LCORR  =      T    Harris-Foulkes like correction to forces

   POTIM  = 0.5000    time-step for ionic-motion
   TEIN   =    0.0    initial temperature
   TEBEG  =    0.0;   TEEND  =   0.0 temperature during run
   SMASS  =  -3.00    Nose mass-parameter (am)
   estimated Nose-frequenzy (Omega)   =  0.10E-29 period in steps =****** mass=  -0.375E-26a.u.
   SCALEE = 1.0000    scale energy and forces
   NPACO  =    256;   APACO  = 16.0  distance and # of slots for P.C.
   PSTRESS=    0.0 pullay stress

  Mass of Ions in am
   POMASS = 192.22 16.00192.22 16.00
  Ionic Valenz
   ZVAL   =   9.00  6.00  9.00  6.00
  Atomic Wigner-Seitz radii
   RWIGS  =  -1.00 -1.00 -1.00 -1.00
  virtual crystal weights 
   VCA    =   1.00  1.00  1.00  1.00
   NELECT =     696.0000    total number of electrons
   NUPDOWN=      -1.0000    fix difference up-down

 DOS related values:
   EMIN   =  10.00;   EMAX   =-10.00  energy-range for DOS
   EFERMI =   0.00
   ISMEAR =     0;   SIGMA  =   0.05  broadening in eV -4-tet -1-fermi 0-gaus

 Electronic relaxation 2 (details)
   IALGO  =     68    algorithm
   LDIAG  =      T    sub-space diagonalisation (order eigenvalues)
   LSUBROT=      F    optimize rotation matrix (better conditioning)
   TURBO    =      0    0=normal 1=particle mesh
   IRESTART =      0    0=no restart 2=restart with 2 vectors
   NREBOOT  =      0    no. of reboots
   NMIN     =      0    reboot dimension
   EREF     =   0.00    reference energy to select bands
   IMIX   =      4    mixing-type and parameters
     AMIX     =   0.40;   BMIX     =  1.00
     AMIX_MAG =   1.60;   BMIX_MAG =  1.00
     AMIN     =   0.10
     WC   =   100.;   INIMIX=   1;  MIXPRE=   1;  MAXMIX= -45

 Intra band minimization:
   WEIMIN = 0.0010     energy-eigenvalue tresh-hold
   EBREAK =  0.56E-08  absolut break condition
   DEPER  =   0.30     relativ break condition  

   TIME   =   0.40     timestep for ELM

  volume/ion in A,a.u.               =      21.45       144.74
  Fermi-wavevector in a.u.,A,eV,Ry     =   1.124979  2.125902 17.219229  1.265578
  Thomas-Fermi vector in A             =   2.261654
 
 Write flags
   LWAVE        =      F    write WAVECAR
   LDOWNSAMPLE  =      F    k-point downsampling of WAVECAR
   LCHARG       =      F    write CHGCAR
   LVTOT        =      F    write LOCPOT, total local potential
   LVHAR        =      F    write LOCPOT, Hartree potential only
   LELF         =      F    write electronic localiz. function (ELF)
   LORBIT       =      0    0 simple, 1 ext, 2 COOP (PROOUT), +10 PAW based schemes


 Dipole corrections
   LMONO  =      F    monopole corrections only (constant potential shift)
   LDIPOL =      F    correct potential (dipole corrections)
   IDIPOL =      0    1-x, 2-y, 3-z, 4-all directions 
   EPSILON=  1.0000000 bulk dielectric constant

 Exchange correlation treatment:
   GGA     =    RP    GGA type
   LEXCH   =     9    internal setting for exchange type
   VOSKOWN=      0    Vosko Wilk Nusair interpolation
   LHFCALC =     F    Hartree Fock is set to
   LHFONE  =     F    Hartree Fock one center treatment
   AEXX    =    0.0000 exact exchange contribution

 Linear response parameters
   LEPSILON=     F    determine dielectric tensor
   LRPA    =     F    only Hartree local field effects (RPA)
   LNABLA  =     F    use nabla operator in PAW spheres
   LVEL    =     F    velocity operator in full k-point grid
   LINTERFAST=   F  fast interpolation
   KINTER  =     0    interpolate to denser k-point grid
   CSHIFT  =0.1000    complex shift for real part using Kramers Kronig
   OMEGAMAX=  -1.0    maximum frequency
   DEG_THRESHOLD= 0.2000000E-02 threshold for treating states as degnerate
   RTIME   =   -0.100 relaxation time in fs
  (WPLASMAI=    0.000 imaginary part of plasma frequency in eV, 0.658/RTIME)
   DFIELD  = 0.0000000 0.0000000 0.0000000 field for delta impulse in time
 
 Orbital magnetization related:
   ORBITALMAG=     F  switch on orbital magnetization
   LCHIMAG   =     F  perturbation theory with respect to B field
   DQ        =  0.001000  dq finite difference perturbation B field
   LLRAUG    =     F  two centre corrections for induced B field



--------------------------------------------------------------------------------------------------------


 quasi-Newton-method for relaxation of ions
   using selective dynamics as specified on POSCAR
   WARNING: If single coordinates had been selected the selection of coordinates
            is made according to the corresponding   d i r e c t   coordinates!
            Don't support selection of single cartesian coordinates -- sorry ...
  !
 charge density and potential will be updated during run
 spin polarized calculation
 RMM-DIIS sequential band-by-band and
  variant of blocked Davidson during initial phase
 perform sub-space diagonalisation
    before iterative eigenvector-optimisation
 modified Broyden-mixing scheme, WC =      100.0
 initial mixing is a Kerker type mixing with AMIX =  0.4000 and BMIX =      1.0000
 Hartree-type preconditioning will be used
 using additional bands          100
 real space projection scheme for non local part
 use partial core corrections
 calculate Harris-corrections to forces 
   (improved forces if not selfconsistent)
 use gradient corrections 
 use of overlap-Matrix (Vanderbilt PP)
 Gauss-broadening in eV      SIGMA  =   0.05


--------------------------------------------------------------------------------------------------------


  energy-cutoff  :      500.00
  volume of cell :     2144.87
      direct lattice vectors                 reciprocal lattice vectors
    12.808532000  0.000000000  0.000000000     0.078072959  0.000000000  0.000000000
     0.000000000  6.470243000  0.000000000     0.000000000  0.154553701  0.000000000
     0.000000000  0.000000000 25.880972000     0.000000000  0.000000000  0.038638425

  length of vectors
    12.808532000  6.470243000 25.880972000     0.078072959  0.154553701  0.038638425


 
 k-points in units of 2pi/SCALE and weight: Automatic mesh                          
   0.00000000  0.00000000  0.00000000       0.111
   0.02602432  0.00000000  0.00000000       0.222
   0.00000000  0.05151790  0.00000000       0.222
   0.02602432  0.05151790  0.00000000       0.444
 
 k-points in reciprocal lattice and weights: Automatic mesh                          
   0.00000000  0.00000000  0.00000000       0.111
   0.33333333  0.00000000  0.00000000       0.222
   0.00000000  0.33333333  0.00000000       0.222
   0.33333333  0.33333333  0.00000000       0.444
 
 position of ions in fractional coordinates (direct lattice) 
   0.12500000  0.50000000  0.18750000
   0.37500000  0.50000000  0.18750000
   0.12500000  0.00000000  0.06250000
   0.37500000  0.00000000  0.06250000
   0.00000000  0.50000000  0.06250000
   0.25000000  0.50000000  0.06250000
   0.00000000  0.00000000  0.18750000
   0.25000000  0.00000000  0.18750000
   0.12506454  0.50000000  0.43816121
   0.37515458  0.50000000  0.43873652
   0.12495041  0.00000000  0.31326190
   0.37382770  0.00000000  0.31259685
   0.00024134  0.50000000  0.31302860
   0.24981691  0.50000000  0.31304391
   0.99856095  0.00000000  0.44234737
   0.25133559  0.00000000  0.44246918
   0.00000000  0.50000000  0.13961000
   0.25000000  0.50000000  0.13961000
   0.00000000  0.00000000  0.01461000
   0.25000000  0.00000000  0.01461000
   0.12500000  0.80844000  0.18750000
   0.37500000  0.80844000  0.18750000
   0.12500000  0.30844000  0.06250000
   0.37500000  0.30844000  0.06250000
   0.00000000  0.50000000  0.23539000
   0.25000000  0.50000000  0.23539000
   0.00000000  0.00000000  0.11039000
   0.25000000  0.00000000  0.11039000
   0.12500000  0.19156000  0.18750000
   0.37500000  0.19156000  0.18750000
   0.12500000  0.69156000  0.06250000
   0.37500000  0.69156000  0.06250000
   0.99985208  0.50000000  0.38987250
   0.25036273  0.50000000  0.38986764
   0.00074280  0.00000000  0.26474001
   0.24918206  0.00000000  0.26475639
   0.12494972  0.80944362  0.43631530
   0.37774233  0.80871715  0.43997065
   0.12486553  0.30758557  0.31294151
   0.37456211  0.30767692  0.31228491
   0.00036318  0.50000000  0.48390194
   0.24971583  0.50000000  0.48401600
   0.99941988  0.00000000  0.36146831
   0.25047018  0.00000000  0.36146696
   0.12494972  0.19055638  0.43631530
   0.37774233  0.19128285  0.43997065
   0.12486553  0.69241443  0.31294151
   0.37456211  0.69232308  0.31228491
   0.24736928  0.00000000  0.51175775
   0.00303334  0.00000000  0.51167089
   0.62500000  0.50000000  0.18750000
   0.87500000  0.50000000  0.18750000
   0.62500000  0.00000000  0.06250000
   0.87500000  0.00000000  0.06250000
   0.50000000  0.50000000  0.06250000
   0.75000000  0.50000000  0.06250000
   0.50000000  0.00000000  0.18750000
   0.75000000  0.00000000  0.18750000
   0.62495256  0.50000000  0.43621233
   0.87486998  0.50000000  0.43869685
   0.62486970  0.00000000  0.31300022
   0.87611374  0.00000000  0.31251504
   0.49958205  0.50000000  0.31260985
   0.75041310  0.50000000  0.31259597
   0.50485332  0.00000000  0.43882064
   0.74493970  0.00000000  0.43875533
   0.50000000  0.50000000  0.13961000
   0.75000000  0.50000000  0.13961000
   0.50000000  0.00000000  0.01461000
   0.75000000  0.00000000  0.01461000
   0.62500000  0.80844000  0.18750000
   0.87500000  0.80844000  0.18750000
   0.62500000  0.30844000  0.06250000
   0.87500000  0.30844000  0.06250000
   0.50000000  0.50000000  0.23539000
   0.75000000  0.50000000  0.23539000
   0.50000000  0.00000000  0.11039000
   0.75000000  0.00000000  0.11039000
   0.62500000  0.19156000  0.18750000
   0.87500000  0.19156000  0.18750000
   0.62500000  0.69156000  0.06250000
   0.87500000  0.69156000  0.06250000
   0.49842217  0.50000000  0.38899065
   0.75161521  0.50000000  0.38898171
   0.49999909  0.00000000  0.26494817
   0.74976521  0.00000000  0.26480493
   0.62485194  0.80452777  0.43030203
   0.87215456  0.80885020  0.43972995
   0.62479500  0.30810147  0.31239046
   0.87571475  0.30779133  0.31219292
   0.50218966  0.50000000  0.48302325
   0.74769837  0.50000000  0.48303471
   0.49639692  0.00000000  0.36044102
   0.75327128  0.00000000  0.36027948
   0.62485194  0.19547223  0.43030203
   0.87215456  0.19114980  0.43972995
   0.62479500  0.69189853  0.31239046
   0.87571475  0.69220867  0.31219292
   0.69144805  0.00000000  0.51061054
   0.55934227  0.00000000  0.51065659
 
 position of ions in cartesian coordinates  (Angst):
   1.60106650  3.23512150  4.85268225
   4.80319950  3.23512150  4.85268225
   1.60106650  0.00000000  1.61756075
   4.80319950  0.00000000  1.61756075
   0.00000000  3.23512150  1.61756075
   3.20213300  3.23512150  1.61756075
   0.00000000  0.00000000  4.85268225
   3.20213300  0.00000000  4.85268225
   1.60189315  3.23512150 11.34003808
   4.80517949  3.23512150 11.35492747
   1.60043137  0.00000000  8.10752249
   4.78818412  0.00000000  8.09031043
   0.00309127  3.23512150  8.10148431
   3.19978785  3.23512150  8.10188075
  12.79009992  0.00000000 11.44837978
   3.21923989  0.00000000 11.45153249
   0.00000000  3.23512150  3.61324250
   3.20213300  3.23512150  3.61324250
   0.00000000  0.00000000  0.37812100
   3.20213300  0.00000000  0.37812100
   1.60106650  5.23080325  4.85268225
   4.80319950  5.23080325  4.85268225
   1.60106650  1.99568175  1.61756075
   4.80319950  1.99568175  1.61756075
   0.00000000  3.23512150  6.09212200
   3.20213300  3.23512150  6.09212200
   0.00000000  0.00000000  2.85700050
   3.20213300  0.00000000  2.85700050
   1.60106650  1.23943975  4.85268225
   4.80319950  1.23943975  4.85268225
   1.60106650  4.47456125  1.61756075
   4.80319950  4.47456125  1.61756075
  12.80663735  3.23512150 10.09027934
   3.20677901  3.23512150 10.09015360
   0.00951414  0.00000000  6.85172880
   3.19165637  0.00000000  6.85215260
   1.60042245  5.23729693 11.29226403
   4.83832466  5.23259648 11.38686806
   1.59934418  1.99015338  8.09923041
   4.79759078  1.99074442  8.08223698
   0.00465181  3.23512150 12.52385257
   3.19849316  3.23512150 12.52680452
  12.80110146  0.00000000  9.35515121
   3.20815532  0.00000000  9.35511617
   1.60042245  1.23294607 11.29226403
   4.83832466  1.23764652 11.38686806
   1.59934418  4.48008962  8.09923041
   4.79759078  4.47949858  8.08223698
   3.16843729  0.00000000 13.24478800
   0.03885262  0.00000000 13.24254002
   8.00533250  3.23512150  4.85268225
  11.20746550  3.23512150  4.85268225
   8.00533250  0.00000000  1.61756075
  11.20746550  0.00000000  1.61756075
   6.40426600  3.23512150  1.61756075
   9.60639900  3.23512150  1.61756075
   6.40426600  0.00000000  4.85268225
   9.60639900  0.00000000  4.85268225
   8.00472490  3.23512150 11.28959905
  11.20580009  3.23512150 11.35390077
   8.00366354  0.00000000  8.10074994
  11.22173087  0.00000000  8.08819293
   6.39891261  3.23512150  8.09064677
   9.61169016  3.23512150  8.09028764
   6.46642997  0.00000000 11.35710478
   9.54158394  0.00000000 11.35541451
   6.40426600  3.23512150  3.61324250
   9.60639900  3.23512150  3.61324250
   6.40426600  0.00000000  0.37812100
   9.60639900  0.00000000  0.37812100
   8.00533250  5.23080325  4.85268225
  11.20746550  5.23080325  4.85268225
   8.00533250  1.99568175  1.61756075
  11.20746550  1.99568175  1.61756075
   6.40426600  3.23512150  6.09212200
   9.60639900  3.23512150  6.09212200
   6.40426600  0.00000000  2.85700050
   9.60639900  0.00000000  2.85700050
   8.00533250  1.23943975  4.85268225
  11.20746550  1.23943975  4.85268225
   8.00533250  4.47456125  1.61756075
  11.20746550  4.47456125  1.61756075
   6.38405633  3.23512150 10.06745605
   9.62708741  3.23512150 10.06722470
   6.40425428  0.00000000  6.85711616
   9.60339169  0.00000000  6.85340895
   8.00343608  5.20549016 11.13663472
  11.17101954  5.23345732 11.38063840
   8.00270672  1.99349141  8.08496882
  11.21662036  1.99148469  8.07985634
   6.43231233  3.23512150 12.50111123
   9.57691854  3.23512150 12.50140786
   6.35811579  0.00000000  9.32856396
   9.64829925  0.00000000  9.32438324
   8.00343608  1.26475284 11.13663472
  11.17101954  1.23678568 11.38063840
   8.00270672  4.47675159  8.08496882
  11.21662036  4.47875831  8.07985634
   8.85643446  0.00000000 13.21509697
   7.16435342  0.00000000 13.21628901
 


--------------------------------------------------------------------------------------------------------


 k-point  1 :   0.0000 0.0000 0.0000  plane waves:   54455
 k-point  2 :   0.3333 0.0000 0.0000  plane waves:   54459
 k-point  3 :   0.0000 0.3333 0.0000  plane waves:   54468
 k-point  4 :   0.3333 0.3333 0.0000  plane waves:   54434

 maximum and minimum number of plane-waves per node :     27251    27204

 maximum number of plane-waves:     54468
 maximum index in each direction: 
   IXMAX=   23   IYMAX=   11   IZMAX=   47
   IXMIN=  -23   IYMIN=  -12   IZMIN=  -47


 real space projection operators:
  total allocation   :      13825.58 KBytes
  max/ min on nodes  :       6917.69       6907.89


 parallel 3D FFT for wavefunctions:
    minimum data exchange during FFTs selected (reduces bandwidth)
 parallel 3D FFT for charge:
    minimum data exchange during FFTs selected (reduces bandwidth)


 total amount of memory used by VASP MPI-rank0   511739. kBytes
=======================================================================

   base      :      30000. kBytes
   nonlr-proj:      12769. kBytes
   fftplans  :      18109. kBytes
   grid      :      50594. kBytes
   one-center:       1555. kBytes
   wavefun   :     398712. kBytes
 
     INWAV:  cpu time    0.0000: real time    0.0000
 Broyden mixing: mesh for mixing (old mesh)
   NGX = 47   NGY = 23   NGZ = 95
  (NGX  =140   NGY  = 72   NGZ  =288)
  gives a total of 102695 points

 initial charge density was supplied:
 charge density of overlapping atoms calculated
 number of electron     696.0000000 magnetization      60.0000000
 keeping initial charge density in first step


--------------------------------------------------------------------------------------------------------


 Maximum index for non-local projection operator         1221
 Maximum index for augmentation-charges         1840 (set IRDMAX)


--------------------------------------------------------------------------------------------------------


 First call to EWALD:  gamma=   0.137
 Maximum number of real-space cells 3x 5x 2
 Maximum number of reciprocal cells 3x 2x 5

    FEWALD:  cpu time    0.0104: real time    0.0106


--------------------------------------- Iteration      1(   1)  ---------------------------------------


    POTLOK:  cpu time    0.5599: real time    0.5639
    SETDIJ:  cpu time    0.0585: real time    0.0586
     EDDAV:  cpu time   84.0604: real time   84.2909
       DOS:  cpu time    0.0025: real time    0.0025
    --------------------------------------------
      LOOP:  cpu time   84.6812: real time   84.9159

 eigenvalue-minimisations  :  7224
 total energy-change (2. order) : 0.7761715E+04  (-0.3133278E+05)
 number of electron     696.0000000 magnetization      60.0000000
 augmentation part      696.0000000 magnetization      60.0000000

 Free energy of the ion-electron system (eV)
  ---------------------------------------------------
  alpha Z        PSCENC =      1826.57435200
  Ewald energy   TEWEN  =    229951.65878264
  -Hartree energ DENC   =   -276863.96683203
  -exchange      EXHF   =         0.00000000
  -V(xc)+E(xc)   XCENC  =      1311.55866234
  PAW double counting   =     41249.06120504   -40032.83491672
  entropy T*S    EENTRO =        -0.05887547
  eigenvalues    EBANDS =      3021.66580072
  atomic energy  EATOM  =     47298.05697971
  Solvation  Ediel_sol  =         0.00000000
  ---------------------------------------------------
  free energy    TOTEN  =      7761.71515822 eV

  energy without entropy =     7761.77403369  energy(sigma->0) =     7761.74459596


--------------------------------------------------------------------------------------------------------




--------------------------------------- Iteration      1(   2)  ---------------------------------------


     EDDAV:  cpu time   89.9780: real time   90.1900
       DOS:  cpu time    0.0028: real time    0.0028
    --------------------------------------------
      LOOP:  cpu time   89.9807: real time   90.1928

 eigenvalue-minimisations  :  7552
 total energy-change (2. order) :-0.7227201E+04  (-0.6636684E+04)
 number of electron     696.0000000 magnetization      60.0000000
 augmentation part      696.0000000 magnetization      60.0000000

 Free energy of the ion-electron system (eV)
  ---------------------------------------------------
  alpha Z        PSCENC =      1826.57435200
  Ewald energy   TEWEN  =    229951.65878264
  -Hartree energ DENC   =   -276863.96683203
  -exchange      EXHF   =         0.00000000
  -V(xc)+E(xc)   XCENC  =      1311.55866234
  PAW double counting   =     41249.06120504   -40032.83491672
  entropy T*S    EENTRO =        -0.04313735
  eigenvalues    EBANDS =     -4205.55126063
  atomic energy  EATOM  =     47298.05697971
  Solvation  Ediel_sol  =         0.00000000
  ---------------------------------------------------
  free energy    TOTEN  =       534.51383499 eV

  energy without entropy =      534.55697234  energy(sigma->0) =      534.53540366


--------------------------------------------------------------------------------------------------------




--------------------------------------- Iteration      1(   3)  ---------------------------------------


     EDDAV:  cpu time  104.7965: real time  105.0439
       DOS:  cpu time    0.0028: real time    0.0028
    --------------------------------------------
      LOOP:  cpu time  104.7993: real time  105.0467

 eigenvalue-minimisations  :  9048
 total energy-change (2. order) :-0.1235382E+04  (-0.1177314E+04)
 number of electron     696.0000000 magnetization      60.0000000
 augmentation part      696.0000000 magnetization      60.0000000

 Free energy of the ion-electron system (eV)
  ---------------------------------------------------
  alpha Z        PSCENC =      1826.57435200
  Ewald energy   TEWEN  =    229951.65878264
  -Hartree energ DENC   =   -276863.96683203
  -exchange      EXHF   =         0.00000000
  -V(xc)+E(xc)   XCENC  =      1311.55866234
  PAW double counting   =     41249.06120504   -40032.83491672
  entropy T*S    EENTRO =        -0.06384064
  eigenvalues    EBANDS =     -5440.91242413
  atomic energy  EATOM  =     47298.05697971
  Solvation  Ediel_sol  =         0.00000000
  ---------------------------------------------------
  free energy    TOTEN  =      -700.86803181 eV

  energy without entropy =     -700.80419116  energy(sigma->0) =     -700.83611148


--------------------------------------------------------------------------------------------------------




--------------------------------------- Iteration      1(   4)  ---------------------------------------


     EDDAV:  cpu time  106.1659: real time  106.4172
       DOS:  cpu time    0.0030: real time    0.0030
    --------------------------------------------
      LOOP:  cpu time  106.1688: real time  106.4202

 eigenvalue-minimisations  :  9208
 total energy-change (2. order) :-0.7266735E+02  (-0.7013321E+02)
 number of electron     696.0000000 magnetization      60.0000000
 augmentation part      696.0000000 magnetization      60.0000000

 Free energy of the ion-electron system (eV)
  ---------------------------------------------------
  alpha Z        PSCENC =      1826.57435200
  Ewald energy   TEWEN  =    229951.65878264
  -Hartree energ DENC   =   -276863.96683203
  -exchange      EXHF   =         0.00000000
  -V(xc)+E(xc)   XCENC  =      1311.55866234
  PAW double counting   =     41249.06120504   -40032.83491672
  entropy T*S    EENTRO =        -0.06834108
  eigenvalues    EBANDS =     -5513.57527486
  atomic energy  EATOM  =     47298.05697971
  Solvation  Ediel_sol  =         0.00000000
  ---------------------------------------------------
  free energy    TOTEN  =      -773.53538297 eV

  energy without entropy =     -773.46704189  energy(sigma->0) =     -773.50121243


--------------------------------------------------------------------------------------------------------




--------------------------------------- Iteration      1(   5)  ---------------------------------------


     EDDAV:  cpu time  106.6374: real time  106.8898
       DOS:  cpu time    0.0027: real time    0.0027
    CHARGE:  cpu time    4.0729: real time    4.0826
    MIXING:  cpu time    0.0109: real time    0.0110
    --------------------------------------------
      LOOP:  cpu time  110.7240: real time  110.9861

 eigenvalue-minimisations  :  9256
 total energy-change (2. order) :-0.2269078E+01  (-0.2236408E+01)
 number of electron     696.0000520 magnetization      55.9848293
 augmentation part      119.2064120 magnetization      47.4009188

 Broyden mixing:
  rms(total) = 0.17592E+02    rms(broyden)= 0.17591E+02
  rms(prec ) = 0.17842E+02
  weight for this iteration     100.00

 Free energy of the ion-electron system (eV)
  ---------------------------------------------------
  alpha Z        PSCENC =      1826.57435200
  Ewald energy   TEWEN  =    229951.65878264
  -Hartree energ DENC   =   -276863.96683203
  -exchange      EXHF   =         0.00000000
  -V(xc)+E(xc)   XCENC  =      1311.55866234
  PAW double counting   =     41249.06120504   -40032.83491672
  entropy T*S    EENTRO =        -0.06924828
  eigenvalues    EBANDS =     -5515.84344568
  atomic energy  EATOM  =     47298.05697971
  Solvation  Ediel_sol  =         0.00000000
  ---------------------------------------------------
  free energy    TOTEN  =      -775.80446099 eV

  energy without entropy =     -775.73521271  energy(sigma->0) =     -775.76983685


--------------------------------------------------------------------------------------------------------




--------------------------------------- Iteration      1(   6)  ---------------------------------------


    POTLOK:  cpu time    0.5842: real time    0.5856
    SETDIJ:  cpu time    0.0666: real time    0.0667
    EDDIAG:  cpu time   14.3626: real time   14.3966
  RMM-DIIS:  cpu time   46.8740: real time   46.9843
    ORTHCH:  cpu time    2.7103: real time    2.7167
       DOS:  cpu time    0.0026: real time    0.0026
    CHARGE:  cpu time    4.2212: real time    4.2312
    MIXING:  cpu time    0.0100: real time    0.0100
    --------------------------------------------
      LOOP:  cpu time   68.8313: real time   68.9936

 eigenvalue-minimisations  :  7201
 total energy-change (2. order) : 0.9453471E+02  (-0.7548834E+02)
 number of electron     696.0000453 magnetization      53.2836283
 augmentation part      132.0676987 magnetization      44.4619405

 Broyden mixing:
  rms(total) = 0.13521E+02    rms(broyden)= 0.13518E+02
  rms(prec ) = 0.14855E+02
  weight for this iteration     100.00

 eigenvalues of (default mixing * dielectric matrix)
  average eigenvalue GAMMA=   0.7904
  0.7904

 Free energy of the ion-electron system (eV)
  ---------------------------------------------------
  alpha Z        PSCENC =      1826.57435200
  Ewald energy   TEWEN  =    229951.65878264
  -Hartree energ DENC   =   -276972.32043602
  -exchange      EXHF   =         0.00000000
  -V(xc)+E(xc)   XCENC  =      1395.86756323
  PAW double counting   =     49227.73258381   -48077.73845274
  entropy T*S    EENTRO =        -0.07112987
  eigenvalues    EBANDS =     -5331.02999641
  atomic energy  EATOM  =     47298.05697971
  Solvation  Ediel_sol  =         0.00000000
  ---------------------------------------------------
  free energy    TOTEN  =      -681.26975365 eV

  energy without entropy =     -681.19862378  energy(sigma->0) =     -681.23418872


--------------------------------------------------------------------------------------------------------




--------------------------------------- Iteration      1(   7)  ---------------------------------------


    POTLOK:  cpu time    0.5201: real time    0.5230
    SETDIJ:  cpu time    0.0643: real time    0.0645
    EDDIAG:  cpu time   14.4768: real time   14.5144
  RMM-DIIS:  cpu time   49.4486: real time   49.5756
    ORTHCH:  cpu time    2.6722: real time    2.6788
       DOS:  cpu time    0.0025: real time    0.0025
    CHARGE:  cpu time    4.1251: real time    4.1348
    MIXING:  cpu time    0.0176: real time    0.0176
    --------------------------------------------
      LOOP:  cpu time   71.3272: real time   71.5112

 eigenvalue-minimisations  :  7690
 total energy-change (2. order) :-0.4886063E+03  (-0.4421283E+02)
 number of electron     696.0000408 magnetization      52.6874573
 augmentation part      123.6752174 magnetization      43.3881474

 Broyden mixing:
  rms(total) = 0.33712E+02    rms(broyden)= 0.33711E+02
  rms(prec ) = 0.37656E+02
  weight for this iteration     100.00

 eigenvalues of (default mixing * dielectric matrix)
  average eigenvalue GAMMA=   0.4228
  0.8222  0.0234

 Free energy of the ion-electron system (eV)
  ---------------------------------------------------
  alpha Z        PSCENC =      1826.57435200
  Ewald energy   TEWEN  =    229951.65878264
  -Hartree energ DENC   =   -277988.75965173
  -exchange      EXHF   =         0.00000000
  -V(xc)+E(xc)   XCENC  =      1371.78930526
  PAW double counting   =     53467.90132137   -52320.52318235
  entropy T*S    EENTRO =        -0.05695283
  eigenvalues    EBANDS =     -4776.51701613
  atomic energy  EATOM  =     47298.05697971
  Solvation  Ediel_sol  =         0.00000000
  ---------------------------------------------------
  free energy    TOTEN  =     -1169.87606208 eV

  energy without entropy =    -1169.81910924  energy(sigma->0) =    -1169.84758566


--------------------------------------------------------------------------------------------------------




--------------------------------------- Iteration      1(   8)  ---------------------------------------


    POTLOK:  cpu time    0.5368: real time    0.5391
    SETDIJ:  cpu time    0.0619: real time    0.0621
    EDDIAG:  cpu time   14.4554: real time   14.4925
  RMM-DIIS:  cpu time   48.4663: real time   48.5933
    ORTHCH:  cpu time    2.7184: real time    2.7249
       DOS:  cpu time    0.0025: real time    0.0026
    CHARGE:  cpu time    4.1489: real time    4.1587
    MIXING:  cpu time    0.0145: real time    0.0145
    --------------------------------------------
      LOOP:  cpu time   70.4047: real time   70.5876

 eigenvalue-minimisations  :  7490
 total energy-change (2. order) : 0.1906981E+03  (-0.4308362E+01)
 number of electron     696.0000413 magnetization      51.5467718
 augmentation part      123.4071765 magnetization      39.6778934

 Broyden mixing:
  rms(total) = 0.26815E+02    rms(broyden)= 0.26815E+02
  rms(prec ) = 0.30287E+02
  weight for this iteration     100.00

 eigenvalues of (default mixing * dielectric matrix)
  average eigenvalue GAMMA=   0.4405
  0.8611  0.2302  0.2302

 Free energy of the ion-electron system (eV)
  ---------------------------------------------------
  alpha Z        PSCENC =      1826.57435200
  Ewald energy   TEWEN  =    229951.65878264
  -Hartree energ DENC   =   -278044.54784511
  -exchange      EXHF   =         0.00000000
  -V(xc)+E(xc)   XCENC  =      1370.52169990
  PAW double counting   =     54595.94601099   -53449.41192050
  entropy T*S    EENTRO =        -0.07964892
  eigenvalues    EBANDS =     -4527.89641533
  atomic energy  EATOM  =     47298.05697971
  Solvation  Ediel_sol  =         0.00000000
  ---------------------------------------------------
  free energy    TOTEN  =      -979.17800464 eV

  energy without entropy =     -979.09835572  energy(sigma->0) =     -979.13818018


--------------------------------------------------------------------------------------------------------




--------------------------------------- Iteration      1(   9)  ---------------------------------------


    POTLOK:  cpu time    0.4814: real time    0.4837
    SETDIJ:  cpu time    0.0636: real time    0.0638
    EDDIAG:  cpu time   14.6476: real time   14.6823
  RMM-DIIS:  cpu time   46.2266: real time   46.3356
    ORTHCH:  cpu time    2.7177: real time    2.7242
       DOS:  cpu time    0.0026: real time    0.0026
    CHARGE:  cpu time    4.1104: real time    4.1202
    MIXING:  cpu time    0.0141: real time    0.0141
    --------------------------------------------
      LOOP:  cpu time   68.2640: real time   68.4265

 eigenvalue-minimisations  :  7194
 total energy-change (2. order) : 0.9101465E+02  (-0.1025125E+02)
 number of electron     696.0000454 magnetization      49.2204438
 augmentation part      127.2533771 magnetization      40.6851044

 Broyden mixing:
  rms(total) = 0.21728E+02    rms(broyden)= 0.21727E+02
  rms(prec ) = 0.25416E+02
  weight for this iteration     100.00

 eigenvalues of (default mixing * dielectric matrix)
  average eigenvalue GAMMA=   0.5152
  1.2491  0.3701  0.2207  0.2207

 Free energy of the ion-electron system (eV)
  ---------------------------------------------------
  alpha Z        PSCENC =      1826.57435200
  Ewald energy   TEWEN  =    229951.65878264
  -Hartree energ DENC   =   -277023.14259567
  -exchange      EXHF   =         0.00000000
  -V(xc)+E(xc)   XCENC  =      1368.44729489
  PAW double counting   =     55503.80701241   -54364.02055124
  entropy T*S    EENTRO =        -0.08157961
  eigenvalues    EBANDS =     -5449.46304774
  atomic energy  EATOM  =     47298.05697971
  Solvation  Ediel_sol  =         0.00000000
  ---------------------------------------------------
  free energy    TOTEN  =      -888.16335261 eV

  energy without entropy =     -888.08177300  energy(sigma->0) =     -888.12256281


--------------------------------------------------------------------------------------------------------




--------------------------------------- Iteration      1(  10)  ---------------------------------------


    POTLOK:  cpu time    0.5344: real time    0.5357
    SETDIJ:  cpu time    0.0651: real time    0.0652
    EDDIAG:  cpu time   14.5567: real time   14.5911
  RMM-DIIS:  cpu time   46.4558: real time   46.5655
    ORTHCH:  cpu time    2.7159: real time    2.7223
       DOS:  cpu time    0.0023: real time    0.0023
    CHARGE:  cpu time    4.0185: real time    4.0281
    MIXING:  cpu time    0.0172: real time    0.0173
    --------------------------------------------
      LOOP:  cpu time   68.3660: real time   68.5276

 eigenvalue-minimisations  :  7320
 total energy-change (2. order) : 0.3785422E+02  (-0.1302503E+02)
 number of electron     696.0000528 magnetization      47.1425459
 augmentation part      123.8414931 magnetization      40.0344142

 Broyden mixing:
  rms(total) = 0.16860E+02    rms(broyden)= 0.16858E+02
  rms(prec ) = 0.19749E+02
  weight for this iteration     100.00

 eigenvalues of (default mixing * dielectric matrix)
  average eigenvalue GAMMA=   0.5184
  1.5906  0.4504  0.2144  0.2144  0.1219

 Free energy of the ion-electron system (eV)
  ---------------------------------------------------
  alpha Z        PSCENC =      1826.57435200
  Ewald energy   TEWEN  =    229951.65878264
  -Hartree energ DENC   =   -277358.92013080
  -exchange      EXHF   =         0.00000000
  -V(xc)+E(xc)   XCENC  =      1367.44974120
  PAW double counting   =     58030.95736163   -56900.99148208
  entropy T*S    EENTRO =        -0.07221872
  eigenvalues    EBANDS =     -5065.02251939
  atomic energy  EATOM  =     47298.05697971
  Solvation  Ediel_sol  =         0.00000000
  ---------------------------------------------------
  free energy    TOTEN  =      -850.30913381 eV

  energy without entropy =     -850.23691509  energy(sigma->0) =     -850.27302445


--------------------------------------------------------------------------------------------------------




--------------------------------------- Iteration      1(  11)  ---------------------------------------


    POTLOK:  cpu time    0.5332: real time    0.5358
    SETDIJ:  cpu time    0.0619: real time    0.0621
    EDDIAG:  cpu time   14.0639: real time   14.0971
  RMM-DIIS:  cpu time   46.3447: real time   46.4541
    ORTHCH:  cpu time    2.7053: real time    2.7117
       DOS:  cpu time    0.0023: real time    0.0023
    CHARGE:  cpu time    3.8420: real time    3.8511
    MIXING:  cpu time    0.0194: real time    0.0195
    --------------------------------------------
      LOOP:  cpu time   67.5728: real time   67.7336

 eigenvalue-minimisations  :  7266
 total energy-change (2. order) : 0.1259333E+03  (-0.1827216E+01)
 number of electron     696.0000520 magnetization      43.9176772
 augmentation part      123.2868438 magnetization      40.3572399

 Broyden mixing:
  rms(total) = 0.13184E+02    rms(broyden)= 0.13184E+02
  rms(prec ) = 0.15805E+02
  weight for this iteration     100.00

 eigenvalues of (default mixing * dielectric matrix)
  average eigenvalue GAMMA=   0.5733
  1.7063  0.5057  0.5057  0.2800  0.2800  0.1620

 Free energy of the ion-electron system (eV)
  ---------------------------------------------------
  alpha Z        PSCENC =      1826.57435200
  Ewald energy   TEWEN  =    229951.65878264
  -Hartree energ DENC   =   -277294.22917334
  -exchange      EXHF   =         0.00000000
  -V(xc)+E(xc)   XCENC  =      1370.20086655
  PAW double counting   =     60654.21890154   -59535.20204215
  entropy T*S    EENTRO =        -0.03009389
  eigenvalues    EBANDS =     -4995.62439133
  atomic energy  EATOM  =     47298.05697971
  Solvation  Ediel_sol  =         0.00000000
  ---------------------------------------------------
  free energy    TOTEN  =      -724.37581829 eV

  energy without entropy =     -724.34572440  energy(sigma->0) =     -724.36077134


--------------------------------------------------------------------------------------------------------




--------------------------------------- Iteration      1(  12)  ---------------------------------------


    POTLOK:  cpu time    0.5703: real time    0.5716
    SETDIJ:  cpu time    0.0656: real time    0.0658
    EDDIAG:  cpu time   13.9260: real time   13.9588
  RMM-DIIS:  cpu time   45.6687: real time   45.7762
    ORTHCH:  cpu time    2.7512: real time    2.7577
       DOS:  cpu time    0.0026: real time    0.0026
    CHARGE:  cpu time    3.8986: real time    3.9078
    MIXING:  cpu time    0.0204: real time    0.0204
    --------------------------------------------
      LOOP:  cpu time   66.9033: real time   67.0610

 eigenvalue-minimisations  :  7169
 total energy-change (2. order) : 0.9257699E+02  (-0.5052830E+01)
 number of electron     696.0000502 magnetization      42.4153735
 augmentation part      125.6203485 magnetization      35.2942001

 Broyden mixing:
  rms(total) = 0.57388E+01    rms(broyden)= 0.57372E+01
  rms(prec ) = 0.69148E+01
  weight for this iteration     100.00

 eigenvalues of (default mixing * dielectric matrix)
  average eigenvalue GAMMA=   0.5605
  1.7393  0.5673  0.5673  0.2720  0.2720  0.3460  0.1597

 Free energy of the ion-electron system (eV)
  ---------------------------------------------------
  alpha Z        PSCENC =      1826.57435200
  Ewald energy   TEWEN  =    229951.65878264
  -Hartree energ DENC   =   -277312.32478068
  -exchange      EXHF   =         0.00000000
  -V(xc)+E(xc)   XCENC  =      1382.07197226
  PAW double counting   =     61868.06752205   -60757.00240641
  entropy T*S    EENTRO =        -0.07317017
  eigenvalues    EBANDS =     -4888.82808346
  atomic energy  EATOM  =     47298.05697971
  Solvation  Ediel_sol  =         0.00000000
  ---------------------------------------------------
  free energy    TOTEN  =      -631.79883207 eV

  energy without entropy =     -631.72566190  energy(sigma->0) =     -631.76224698


--------------------------------------------------------------------------------------------------------




--------------------------------------- Iteration      1(  13)  ---------------------------------------


    POTLOK:  cpu time    0.5347: real time    0.5367
    SETDIJ:  cpu time    0.0641: real time    0.0642
    EDDIAG:  cpu time   14.2306: real time   14.2642
  RMM-DIIS:  cpu time   46.3814: real time   46.4906
    ORTHCH:  cpu time    2.8120: real time    2.8187
       DOS:  cpu time    0.0027: real time    0.0027
    CHARGE:  cpu time    3.9880: real time    3.9974
    MIXING:  cpu time    0.0241: real time    0.0242
    --------------------------------------------
      LOOP:  cpu time   68.0376: real time   68.1987

 eigenvalue-minimisations  :  7262
 total energy-change (2. order) : 0.2117689E+02  (-0.2277145E+01)
 number of electron     696.0000487 magnetization      41.9264935
 augmentation part      124.9738282 magnetization      35.5822263

 Broyden mixing:
  rms(total) = 0.51122E+01    rms(broyden)= 0.51089E+01
  rms(prec ) = 0.61289E+01
  weight for this iteration     100.00

 eigenvalues of (default mixing * dielectric matrix)
  average eigenvalue GAMMA=   0.5193
  1.6413  0.5734  0.5734  0.2723  0.2723  0.3314  0.3314  0.1586

 Free energy of the ion-electron system (eV)
  ---------------------------------------------------
  alpha Z        PSCENC =      1826.57435200
  Ewald energy   TEWEN  =    229951.65878264
  -Hartree energ DENC   =   -277117.65822397
  -exchange      EXHF   =         0.00000000
  -V(xc)+E(xc)   XCENC  =      1378.84758821
  PAW double counting   =     62311.39734679   -61202.22802912
  entropy T*S    EENTRO =        -0.06340784
  eigenvalues    EBANDS =     -5057.20732874
  atomic energy  EATOM  =     47298.05697971
  Solvation  Ediel_sol  =         0.00000000
  ---------------------------------------------------
  free energy    TOTEN  =      -610.62194034 eV

  energy without entropy =     -610.55853250  energy(sigma->0) =     -610.59023642


--------------------------------------------------------------------------------------------------------




--------------------------------------- Iteration      1(  14)  ---------------------------------------


    POTLOK:  cpu time    0.5373: real time    0.5386
    SETDIJ:  cpu time    0.0688: real time    0.0689
    EDDIAG:  cpu time   14.2043: real time   14.2378
  RMM-DIIS:  cpu time   46.3758: real time   46.4850
    ORTHCH:  cpu time    2.7562: real time    2.7628
       DOS:  cpu time    0.0026: real time    0.0026
    CHARGE:  cpu time    3.9820: real time    3.9914
    MIXING:  cpu time    0.0265: real time    0.0265
    --------------------------------------------
      LOOP:  cpu time   67.9534: real time   68.1136

 eigenvalue-minimisations  :  7244
 total energy-change (2. order) : 0.4995386E+01  (-0.4446576E+00)
 number of electron     696.0000496 magnetization      41.1603127
 augmentation part      124.9089139 magnetization      34.6148004

 Broyden mixing:
  rms(total) = 0.34897E+01    rms(broyden)= 0.34885E+01
  rms(prec ) = 0.36423E+01
  weight for this iteration     100.00

 eigenvalues of (default mixing * dielectric matrix)
  average eigenvalue GAMMA=   0.4939
  1.6755  0.5151  0.5151  0.4323  0.4323  0.2715  0.2715  0.1553  0.1760

 Free energy of the ion-electron system (eV)
  ---------------------------------------------------
  alpha Z        PSCENC =      1826.57435200
  Ewald energy   TEWEN  =    229951.65878264
  -Hartree energ DENC   =   -277127.52925333
  -exchange      EXHF   =         0.00000000
  -V(xc)+E(xc)   XCENC  =      1377.68649847
  PAW double counting   =     62036.56391876   -60927.66565988
  entropy T*S    EENTRO =        -0.07605063
  eigenvalues    EBANDS =     -5040.89612208
  atomic energy  EATOM  =     47298.05697971
  Solvation  Ediel_sol  =         0.00000000
  ---------------------------------------------------
  free energy    TOTEN  =      -605.62655435 eV

  energy without entropy =     -605.55050371  energy(sigma->0) =     -605.58852903


--------------------------------------------------------------------------------------------------------




--------------------------------------- Iteration      1(  15)  ---------------------------------------


    POTLOK:  cpu time    0.5728: real time    0.5742
    SETDIJ:  cpu time    0.0619: real time    0.0621
    EDDIAG:  cpu time   14.1445: real time   14.1779
  RMM-DIIS:  cpu time   46.4618: real time   46.5712
    ORTHCH:  cpu time    2.7894: real time    2.7960
       DOS:  cpu time    0.0026: real time    0.0026
    CHARGE:  cpu time    3.9772: real time    3.9866
    MIXING:  cpu time    0.0248: real time    0.0248
    --------------------------------------------
      LOOP:  cpu time   68.0350: real time   68.1953

 eigenvalue-minimisations  :  7284
 total energy-change (2. order) :-0.1406095E+01  (-0.1478667E+00)
 number of electron     696.0000492 magnetization      40.3577895
 augmentation part      124.9020125 magnetization      32.7786016

 Broyden mixing:
  rms(total) = 0.31140E+01    rms(broyden)= 0.31138E+01
  rms(prec ) = 0.32078E+01
  weight for this iteration     100.00

 eigenvalues of (default mixing * dielectric matrix)
  average eigenvalue GAMMA=   0.4804
  1.6779  0.5321  0.5321  0.4685  0.4685  0.2770  0.2770  0.1580  0.2062  0.2062

 Free energy of the ion-electron system (eV)
  ---------------------------------------------------
  alpha Z        PSCENC =      1826.57435200
  Ewald energy   TEWEN  =    229951.65878264
  -Hartree energ DENC   =   -277105.41686388
  -exchange      EXHF   =         0.00000000
  -V(xc)+E(xc)   XCENC  =      1375.80082123
  PAW double counting   =     62152.99711165   -61045.05611722
  entropy T*S    EENTRO =        -0.07272655
  eigenvalues    EBANDS =     -5061.57498912
  atomic energy  EATOM  =     47298.05697971
  Solvation  Ediel_sol  =         0.00000000
  ---------------------------------------------------
  free energy    TOTEN  =      -607.03264954 eV

  energy without entropy =     -606.95992299  energy(sigma->0) =     -606.99628627


--------------------------------------------------------------------------------------------------------




--------------------------------------- Iteration      1(  16)  ---------------------------------------


    POTLOK:  cpu time    0.5774: real time    0.5794
[...]
   -.101E-01 -.359E+01 0.167E+04   0.102E-01 0.172E+01 -.167E+04   -.542E-01 0.181E+01 -.486E+00   0.513E-03 -.185E-02 0.333E-01
   -.436E+00 -.360E+01 0.167E+04   0.447E+00 0.173E+01 -.167E+04   0.461E-01 0.180E+01 -.473E+00   -.690E-02 -.582E-04 0.305E-01
   0.264E+01 -.253E-13 0.170E+03   -.260E+01 0.467E-13 -.168E+03   -.401E-01 0.000E+00 -.241E+01   0.754E-02 -.163E-13 0.390E-01
   -.280E+01 -.180E-11 0.170E+03   0.278E+01 0.231E-12 -.167E+03   0.908E-02 0.000E+00 -.241E+01   -.104E-01 -.282E-12 0.327E-01
   0.554E+00 -.325E-12 0.121E+04   -.546E+00 0.174E-13 -.121E+04   -.315E-01 0.000E+00 0.245E+00   0.597E-02 0.218E-12 0.567E-01
   -.577E+00 0.123E-12 0.121E+04   0.569E+00 -.220E-13 -.121E+04   0.372E-01 0.000E+00 0.234E+00   -.651E-02 0.463E-12 0.589E-01
   -.302E-01 -.338E+02 0.606E+03   0.279E-01 0.354E+02 -.606E+03   -.529E-01 -.160E+01 -.286E-01   0.870E-03 0.101E-02 0.497E-01
   -.204E+01 -.339E+02 0.604E+03   0.205E+01 0.355E+02 -.604E+03   0.636E-01 -.161E+01 -.367E-01   -.121E-01 -.180E-03 0.466E-01
   -.101E-01 0.359E+01 0.167E+04   0.102E-01 -.172E+01 -.167E+04   -.542E-01 -.181E+01 -.486E+00   0.513E-03 0.185E-02 0.333E-01
   -.436E+00 0.360E+01 0.167E+04   0.447E+00 -.173E+01 -.167E+04   0.461E-01 -.180E+01 -.473E+00   -.690E-02 0.582E-04 0.305E-01
   0.265E+02 0.114E-11 -.107E+04   -.273E+02 0.631E-13 0.107E+04   0.795E+00 0.000E+00 -.104E+01   -.151E-03 0.267E-12 -.319E-01
   -.268E+02 -.240E-11 -.107E+04   0.276E+02 0.204E-12 0.107E+04   -.762E+00 0.000E+00 -.998E+00   -.916E-03 -.253E-12 -.243E-01
   0.319E+01 0.150E-12 -.128E+02   -.356E+01 -.728E-13 0.109E+02   0.352E+00 0.000E+00 0.186E+01   0.576E-02 -.229E-13 0.317E-01
   -.314E+01 0.263E-12 -.134E+02   0.345E+01 -.184E-11 0.117E+02   -.302E+00 0.000E+00 0.164E+01   -.122E-01 0.270E-12 0.240E-01
   -.247E+00 0.651E+02 -.139E+04   0.205E+00 -.682E+02 0.138E+04   0.443E-01 0.303E+01 0.103E+02   0.433E-02 -.104E-01 -.403E-01
   -.108E+02 0.281E+02 -.154E+04   0.967E+01 -.295E+02 0.155E+04   0.115E+01 0.137E+01 -.101E+01   0.326E-02 -.534E-02 -.241E-01
   -.103E+01 0.307E+02 -.437E+03   0.113E+01 -.323E+02 0.436E+03   -.964E-01 0.158E+01 0.408E+00   -.660E-02 -.341E-02 -.134E-02
   -.797E+01 0.319E+02 -.453E+03   0.783E+01 -.336E+02 0.452E+03   0.144E+00 0.165E+01 0.389E+00   -.714E-02 -.108E-02 0.365E-02
   0.167E+02 0.136E-11 -.198E+04   -.160E+02 -.829E-14 0.201E+04   -.691E+00 0.000E+00 -.294E+02   -.874E-03 0.511E-12 -.280E-01
   -.175E+02 -.405E-11 -.198E+04   0.169E+02 0.640E-13 0.201E+04   0.581E+00 0.000E+00 -.293E+02   -.109E-02 -.520E-14 -.254E-01
   0.236E+02 0.237E-12 -.888E+03   -.224E+02 -.569E-13 0.894E+03   -.126E+01 0.000E+00 -.594E+01   -.449E-03 -.575E-13 -.412E-01
   -.248E+02 -.195E-12 -.887E+03   0.237E+02 -.189E-11 0.893E+03   0.108E+01 0.000E+00 -.584E+01   -.803E-02 0.334E-12 -.308E-01
   -.247E+00 -.651E+02 -.139E+04   0.205E+00 0.682E+02 0.138E+04   0.443E-01 -.303E+01 0.103E+02   0.433E-02 0.104E-01 -.403E-01
   -.108E+02 -.281E+02 -.154E+04   0.967E+01 0.295E+02 0.155E+04   0.115E+01 -.137E+01 -.101E+01   0.326E-02 0.534E-02 -.241E-01
   -.103E+01 -.307E+02 -.437E+03   0.113E+01 0.323E+02 0.436E+03   -.964E-01 -.158E+01 0.408E+00   -.660E-02 0.341E-02 -.134E-02
   -.797E+01 -.319E+02 -.453E+03   0.783E+01 0.336E+02 0.452E+03   0.144E+00 -.165E+01 0.389E+00   -.714E-02 0.108E-02 0.365E-02
   -.120E+03 -.285E-12 -.203E+04   0.127E+03 -.258E-13 0.206E+04   -.641E+01 0.000E+00 -.295E+02   0.116E-01 -.124E-12 -.204E-01
   0.120E+03 -.308E-12 -.203E+04   -.126E+03 0.213E-14 0.206E+04   0.633E+01 0.000E+00 -.294E+02   -.924E-02 -.517E-12 -.188E-01
 -----------------------------------------------------------------------------------------------
   0.216E+00 0.127E-09 0.168E+03   -.459E-11 -.279E-12 -.455E-11   -.441E+00 -.178E-14 -.169E+03   0.152E-02 -.290E-12 0.145E+01
 
 
 POSITION                                       TOTAL-FORCE (eV/Angst)
 -----------------------------------------------------------------------------------
      1.60107      3.23512      4.85268        -0.007141      0.000000     -0.317502
      4.80320      3.23512      4.85268         0.024497      0.000000     -0.316091
      1.60107      0.00000      1.61756        -0.009907      0.000000     -0.943509
      4.80320      0.00000      1.61756        -0.003731      0.000000     -0.949912
      0.00000      3.23512      1.61756         0.005215      0.000000      1.576055
      3.20213      3.23512      1.61756        -0.000395      0.000000      1.588420
      0.00000      0.00000      4.85268         0.077780      0.000000     -0.072130
      3.20213      0.00000      4.85268        -0.081990      0.000000     -0.075637
      1.60047      3.23512     11.34175        -0.005717      0.000000      0.009270
      4.80682      3.23512     11.35891         0.000416      0.000000      0.005689
      1.60002     -0.00000      8.10942        -0.005263      0.000000      0.005250
      4.79139     -0.00000      8.09071        -0.008224      0.000000     -0.006863
      0.00176      3.23512      8.10410         0.000459      0.000000      0.000766
      3.19944      3.23512      8.10354        -0.002854      0.000000      0.004041
     12.78729     -0.00000     11.45151         0.000420      0.000000      0.011802
      3.21704     -0.00000     11.45244        -0.005729      0.000000      0.008660
      0.00000      3.23512      3.61324        -0.000539      0.000000     -0.097825
      3.20213      3.23512      3.61324         0.002499      0.000000     -0.102733
      0.00000      0.00000      0.37812        -0.013425      0.000000      0.830635
      3.20213      0.00000      0.37812         0.018848      0.000000      0.821555
      1.60107      5.23080      4.85268        -0.051526     -0.035169     -0.050133
      4.80320      5.23080      4.85268         0.049879     -0.018834     -0.027346
      1.60107      1.99568      1.61756        -0.051330     -0.079909     -0.674689
      4.80320      1.99568      1.61756         0.059389     -0.072776     -0.675938
      0.00000      3.23512      6.09212         0.032007      0.000000      0.376919
      3.20213      3.23512      6.09212        -0.032932      0.000000      0.377544
      0.00000      0.00000      2.85700        -0.016900      0.000000      0.209226
      3.20213      0.00000      2.85700         0.024217      0.000000      0.213377
      1.60107      1.23944      4.85268        -0.051526      0.035169     -0.050133
      4.80320      1.23944      4.85268         0.049879      0.018834     -0.027346
      1.60107      4.47456      1.61756        -0.051330      0.079909     -0.674689
      4.80320      4.47456      1.61756         0.059389      0.072776     -0.675938
     12.80349      3.23512     10.09283         0.008389      0.000000      0.019708
      3.20761      3.23512     10.09040         0.000120      0.000000      0.006154
      0.00851     -0.00000      6.85420         0.001646      0.000000     -0.000236
      3.19194     -0.00000      6.85376        -0.011353      0.000000      0.004307
      1.59751      5.23727     11.29129        -0.001158     -0.004741      0.011588
      4.84133      5.23539     11.40126        -0.007900     -0.003457      0.008582
      1.59876      1.99034      8.10100        -0.005681     -0.000603      0.006301
      4.79827      1.99078      8.08319        -0.004330     -0.003465     -0.008213
      0.00254      3.23512     12.52719        -0.009316      0.000000      0.015883
      3.19917      3.23512     12.52956         0.005239      0.000000     -0.001183
     12.79820     -0.00000      9.35779        -0.006535      0.000000      0.002553
      3.20969     -0.00000      9.35899        -0.016428      0.000000     -0.014614
      1.59751      1.23297     11.29129        -0.001158      0.004741      0.011588
      4.84133      1.23486     11.40126        -0.007900      0.003457      0.008582
      1.59876      4.47991      8.10100        -0.005681      0.000603      0.006301
      4.79827      4.47946      8.08319        -0.004330      0.003465     -0.008213
      3.16342     -0.00000     13.24771        -0.005068      0.000000      0.003585
      0.04256     -0.00000     13.24552         0.017780      0.000000      0.005152
      8.00533      3.23512      4.85268        -0.006230      0.000000     -0.325833
     11.20747      3.23512      4.85268         0.004159      0.000000     -0.312241
      8.00533      0.00000      1.61756        -0.008643      0.000000     -0.946457
     11.20747      0.00000      1.61756         0.029117      0.000000     -0.950688
      6.40427      3.23512      1.61756         0.005172      0.000000      1.595702
      9.60640      3.23512      1.61756        -0.001028      0.000000      1.607723
      6.40427      0.00000      4.85268         0.057969      0.000000     -0.088040
      9.60640      0.00000      4.85268        -0.066974      0.000000     -0.112849
      8.00329      3.23512     11.28489         0.003334      0.000000     -0.005736
     11.20110      3.23512     11.35995        -0.000220      0.000000      0.007668
      8.00277     -0.00000      8.10462        -0.006204      0.000000     -0.004319
     11.21675     -0.00000      8.08961         0.002817      0.000000     -0.002767
      6.39829      3.23512      8.09070         0.001501      0.000000     -0.001148
      9.61004      3.23512      8.09113         0.001030      0.000000      0.002453
      6.47473     -0.00000     11.38950         0.015561      0.000000     -0.023395
      9.52995     -0.00000     11.38499         0.006528      0.000000     -0.010366
      6.40427      3.23512      3.61324         0.001614      0.000000     -0.120177
      9.60640      3.23512      3.61324         0.001284      0.000000     -0.124545
      6.40427      0.00000      0.37812         0.024038      0.000000      0.834325
      9.60640      0.00000      0.37812        -0.019147      0.000000      0.825079
      8.00533      5.23080      4.85268        -0.052079     -0.012697     -0.034205
     11.20747      5.23080      4.85268         0.060779     -0.018723     -0.028351
      8.00533      1.99568      1.61756        -0.051272     -0.058157     -0.678318
     11.20747      1.99568      1.61756         0.052039     -0.072820     -0.675632
      6.40427      3.23512      6.09212         0.012022      0.000000      0.194501
      9.60640      3.23512      6.09212        -0.019694      0.000000      0.208138
      6.40427      0.00000      2.85700        -0.015463      0.000000      0.186322
      9.60640      0.00000      2.85700         0.024341      0.000000      0.188666
      8.00533      1.23944      4.85268        -0.052079      0.012697     -0.034205
     11.20747      1.23944      4.85268         0.060779      0.018723     -0.028351
      8.00533      4.47456      1.61756        -0.051272      0.058157     -0.678318
     11.20747      4.47456      1.61756         0.052039      0.072820     -0.675632
      6.38215      3.23512     10.06551        -0.000300      0.000000     -0.002563
      9.62663      3.23512     10.06704         0.003465      0.000000     -0.010511
      6.40462     -0.00000      6.85733        -0.009489      0.000000      0.006554
      9.60339     -0.00000      6.85437        -0.005209      0.000000     -0.000162
      8.00191      5.20800     11.08795         0.008858     -0.006346     -0.028476
     11.16457      5.23595     11.40203         0.001445     -0.002354     -0.002072
      8.00179      1.99321      8.08257        -0.002440      0.000775     -0.004321
     11.21405      1.99182      8.08307        -0.000694     -0.000914      0.003003
      6.43592      3.23512     12.50011        -0.004820      0.000000     -0.007206
      9.56848      3.23512     12.50264        -0.003931      0.000000     -0.001282
      6.35373     -0.00000      9.33083        -0.014836      0.000000     -0.021873
      9.64930     -0.00000      9.32751        -0.003064      0.000000      0.001848
      8.00191      1.26224     11.08795         0.008858      0.006346     -0.028476
     11.16457      1.23429     11.40203         0.001445      0.002354     -0.002072
      8.00179      4.47703      8.08257        -0.002440     -0.000775     -0.004321
     11.21405      4.47843      8.08307        -0.000694      0.000914      0.003003
      8.85651     -0.00000     13.15883         0.003836      0.000000     -0.025926
      7.15563     -0.00000     13.16301         0.003423      0.000000     -0.042776
 -----------------------------------------------------------------------------------
    total drift:                               -0.223608      0.000000     -0.022757


--------------------------------------------------------------------------------------------------------



  FREE ENERGIE OF THE ION-ELECTRON SYSTEM (eV)
  ---------------------------------------------------
  free  energy   TOTEN  =      -637.16868070 eV

  energy  without entropy=     -637.10017240  energy(sigma->0) =     -637.13442655
 
 d Force = 0.4396292E-03[ 0.373E-03, 0.506E-03]  d Energy = 0.5467281E-03-0.107E-03
 d Force =-0.6063363E+01[-0.606E+01,-0.607E+01]  d Ewald  =-0.6063362E+01-0.136E-05


--------------------------------------------------------------------------------------------------------


    POTLOK:  cpu time    0.3998: real time    0.4008


--------------------------------------------------------------------------------------------------------


 NEB: the previous image is higher in energy: F
 NEB: the next image is higher in energy    : F
 NEB: image is at an extrema
 NEB: diff energy (min, max):     0.135301  637.168681

 NEB: Tangent
 ----------------------------------------------
      0.00000      0.00000      0.00000
      0.00000      0.00000      0.00000
      0.00000      0.00000      0.00000
      0.00000      0.00000      0.00000
      0.00000      0.00000      0.00000
      0.00000      0.00000      0.00000
      0.00000      0.00000      0.00000
      0.00000      0.00000      0.00000
      0.00749      0.00000     -0.00339
     -0.00625      0.00000     -0.00056
      0.00155      0.00000      0.00301
     -0.02551      0.00000     -0.00457
      0.00803      0.00000     -0.00831
     -0.00038      0.00000     -0.00321
     -0.00714      0.00000      0.01737
      0.02271      0.00000      0.02184
      0.00000      0.00000      0.00000
      0.00000      0.00000      0.00000
      0.00000      0.00000      0.00000
      0.00000      0.00000      0.00000
      0.00000      0.00000      0.00000
      0.00000      0.00000      0.00000
      0.00000      0.00000      0.00000
      0.00000      0.00000      0.00000
      0.00000      0.00000      0.00000
      0.00000      0.00000      0.00000
      0.00000      0.00000      0.00000
      0.00000      0.00000      0.00000
      0.00000      0.00000      0.00000
      0.00000      0.00000      0.00000
      0.00000      0.00000      0.00000
      0.00000      0.00000      0.00000
      0.01171      0.00000     -0.00228
      0.00051      0.00000      0.00573
      0.01224      0.00000     -0.01326
     -0.00950      0.00000     -0.00702
      0.01071      0.00452      0.00828
      0.01655     -0.01087      0.02265
      0.00265     -0.00091     -0.00020
     -0.00899      0.00014     -0.01037
      0.01802      0.00000     -0.00591
     -0.00570      0.00000      0.00152
      0.00618      0.00000      0.00372
     -0.00166      0.00000      0.00123
      0.01071     -0.00452      0.00828
      0.01655      0.01087      0.02265
      0.00265      0.00091     -0.00020
     -0.00899     -0.00014     -0.01037
     -0.00830      0.00000      0.01075
      0.02061      0.00000      0.01597
      0.00000      0.00000      0.00000
      0.00000      0.00000      0.00000
      0.00000      0.00000      0.00000
      0.00000      0.00000      0.00000
      0.00000      0.00000      0.00000
      0.00000      0.00000      0.00000
      0.00000      0.00000      0.00000
      0.00000      0.00000      0.00000
      0.00446      0.00000     -0.01984
      0.01857      0.00000     -0.01145
      0.00222      0.00000     -0.01039
      0.03238      0.00000     -0.01066
     -0.00192      0.00000     -0.00672
      0.01107      0.00000     -0.00891
      0.01977      0.00000     -0.17611
     -0.00565      0.00000     -0.17315
      0.00000      0.00000      0.00000
      0.00000      0.00000      0.00000
      0.00000      0.00000      0.00000
      0.00000      0.00000      0.00000
      0.00000      0.00000      0.00000
      0.00000      0.00000      0.00000
      0.00000      0.00000      0.00000
      0.00000      0.00000      0.00000
      0.00000      0.00000      0.00000
      0.00000      0.00000      0.00000
      0.00000      0.00000      0.00000
      0.00000      0.00000      0.00000
      0.00000      0.00000      0.00000
      0.00000      0.00000      0.00000
      0.00000      0.00000      0.00000
      0.00000      0.00000      0.00000
     -0.00944      0.00000     -0.00242
      0.01859      0.00000     -0.00988
     -0.00176      0.00000     -0.00030
     -0.00237      0.00000     -0.00250
      0.00270     -0.03063      0.09058
     -0.00206     -0.00762      0.00179
      0.00317      0.00407      0.00724
      0.01654     -0.00008     -0.01986
      0.00240      0.00000     -0.00639
      0.01026      0.00000     -0.01715
     -0.01993      0.00000     -0.01557
      0.03022      0.00000     -0.01993
      0.00270      0.03063      0.09058
     -0.00206      0.00762      0.00179
      0.00317     -0.00407      0.00724
      0.01654      0.00008     -0.01986
     -0.61389      0.00000      0.23420
      0.65064      0.00000      0.22671

 NEB: forces: par spring, perp REAL, dneb     0.047775    0.100122    0.000000
 NEB: distance to prev, next image, angle between     0.234684    0.244239  159.683957
 NEB: projections on to tangent (spring, REAL)     0.047775   -0.012352

 stress matrix after NEB project (eV)
    -27.81323      0.00000      0.12751
      0.00000     -7.77861      0.00000
      0.12751      0.00000     -7.53865
  FORCES: max atom, RMS     0.041978    0.010088
  FORCE total and by dimension    0.100881    0.037175
  Stress total and by dimension   29.848722   27.813227
 Quasi-Newton relaxation of ions (Broydens 2nd method)
  g(Force)  = 0.232E-02   g(Stress)= 0.000E+00

 retain information from N= 10 steps
 eigenvalues of (default step * inverse Hessian matrix)
  average eigenvalue of G=   2.3254
 eigenvalue spectrum of G is  7.6994  7.6994  1.8815  1.8815  0.8975  0.8975  0.5983  0.5983  0.5504  0.5504


--------------------------------------------------------------------------------------------------------


  
 reached required accuracy - stopping structural energy minimisation
     LOOP+:  cpu time  466.1529: real time  467.2711
    4ORBIT:  cpu time    0.0000: real time    0.0000

 total amount of memory used by VASP MPI-rank0   511739. kBytes
=======================================================================

   base      :      30000. kBytes
   nonlr-proj:      12769. kBytes
   fftplans  :      18109. kBytes
   grid      :      50594. kBytes
   one-center:       1555. kBytes
   wavefun   :     398712. kBytes
 
  
  
 General timing and accounting informations for this job:
 ========================================================
  
                  Total CPU time used (sec):    17128.398
                            User time (sec):    15786.341
                          System time (sec):     1342.058
                         Elapsed time (sec):    17169.964
  
                   Maximum memory used (kb):      628936.
                   Average memory used (kb):           0.
  
                          Minor page faults:      2160920
                          Major page faults:          141
                 Voluntary context switches:         5235
