 vasp.5.4.4.18Apr17-6-g9f103f2a35 (build Feb 25 2019 10:51:38) complex          
  
 executed on             LinuxIFC date 2022.09.20  17:41:45
 running on   40 total cores
 distrk:  each k-point on   40 cores,    1 groups
 distr:  one band on NCORES_PER_BAND=  10 cores,    4 groups


--------------------------------------------------------------------------------------------------------


 INCAR:
 POTCAR:    PAW_PBE Ir 06Sep2000                  
 POTCAR:    PAW_PBE O 08Apr2002                   
 POTCAR:    PAW_PBE Ir 06Sep2000                  
 POTCAR:    PAW_PBE O 08Apr2002                   
 POTCAR:    PAW_PBE Ir 06Sep2000                  
 POTCAR:    PAW_PBE O 08Apr2002                   
 POTCAR:    PAW_PBE Ir 06Sep2000                  
 POTCAR:    PAW_PBE O 08Apr2002                   
 POTCAR:    PAW_PBE Ir 06Sep2000                  
   VRHFIN =Ir: s1d8                                                             
   LEXCH  = PE                                                                  
   EATOM  =   560.1833 eV,   41.1723 Ry                                         
                                                                                
   TITEL  = PAW_PBE Ir 06Sep2000                                                
   LULTRA =        F    use ultrasoft PP ?                                      
   IUNSCR =        1    unscreen: 0-lin 1-nonlin 2-no                           
   RPACOR =    2.250    partial core radius                                     
   POMASS =  192.220; ZVAL   =    9.000    mass and valenz                      
   RCORE  =    2.600    outmost cutoff radius                                   
   RWIGS  =    2.690; RWIGS  =    1.423    wigner-seitz radius (au A)           
   ENMAX  =  210.864; ENMIN  =  158.148 eV                                      
   RCLOC  =    1.857    cutoff for local pot                                    
   LCOR   =        T    correct aug charges                                     
   LPAW   =        T    paw PP                                                  
   EAUG   =  318.962                                                            
   DEXC   =    0.000                                                            
   RMAX   =    2.667    core radius for proj-oper                               
   RAUG   =    1.300    factor for augmentation sphere                          
   RDEP   =    2.748    radius for radial grids                                 
   RDEPT  =    2.300    core radius for aug-charge                              
                                                                                
   Atomic configuration                                                         
   16 entries                                                                   
     n  l   j            E        occ.                                          
     1  0  0.50    -76100.0449   2.0000                                         
     2  0  0.50    -13308.1683   2.0000                                         
     2  1  1.50    -11558.0021   6.0000                                         
     3  0  0.50     -3110.7274   2.0000                                         
     3  1  1.50     -2599.2109   6.0000                                         
     3  2  2.50     -2037.1515  10.0000                                         
     4  0  0.50      -661.6001   2.0000                                         
     4  1  1.50      -493.8981   6.0000                                         
     4  2  2.50      -288.1909  10.0000                                         
     4  3  3.50       -59.5718  14.0000                                         
     5  0  0.50       -95.3879   2.0000                                         
     5  1  1.50       -52.2747   6.0000                                         
     5  2  2.50        -5.4180   8.0000                                         
     6  0  0.50        -5.5479   1.0000                                         
     6  1  1.50        -6.8029   0.0000                                         
     5  3  2.50        -1.3606   0.0000                                         
   Description                                                                  
     l       E           TYP  RCUT    TYP  RCUT                                 
     2     -5.4179967     23  2.600                                             
     2     -6.7785793     23  2.600                                             
     0     -5.5478636     23  2.600                                             
     0      2.2542272     23  2.600                                             
     1     -2.7211652     23  2.600                                             
     1     20.4087390     23  2.600                                             
  local pseudopotential read in
  partial core-charges read in
  partial kinetic energy density read in
  atomic valenz-charges read in
  non local Contribution for L=           2  read in
    real space projection operators read in
  non local Contribution for L=           2  read in
    real space projection operators read in
  non local Contribution for L=           0  read in
    real space projection operators read in
  non local Contribution for L=           0  read in
    real space projection operators read in
  non local Contribution for L=           1  read in
    real space projection operators read in
  non local Contribution for L=           1  read in
    real space projection operators read in
    PAW grid and wavefunctions read in
 
   number of l-projection  operators is LMAX  =           6
   number of lm-projection operators is LMMAX =          18
 
 POTCAR:    PAW_PBE O 08Apr2002                   
   VRHFIN =O: s2p4                                                              
   LEXCH  = PE                                                                  
   EATOM  =   432.3788 eV,   31.7789 Ry                                         
                                                                                
   TITEL  = PAW_PBE O 08Apr2002                                                 
   LULTRA =        F    use ultrasoft PP ?                                      
   IUNSCR =        1    unscreen: 0-lin 1-nonlin 2-no                           
   RPACOR =    1.200    partial core radius                                     
   POMASS =   16.000; ZVAL   =    6.000    mass and valenz                      
   RCORE  =    1.520    outmost cutoff radius                                   
   RWIGS  =    1.550; RWIGS  =    0.820    wigner-seitz radius (au A)           
   ENMAX  =  400.000; ENMIN  =  300.000 eV                                      
   ICORE  =        2    local potential                                         
   LCOR   =        T    correct aug charges                                     
   LPAW   =        T    paw PP                                                  
   EAUG   =  605.392                                                            
   DEXC   =    0.000                                                            
   RMAX   =    1.553    core radius for proj-oper                               
   RAUG   =    1.300    factor for augmentation sphere                          
   RDEP   =    1.550    radius for radial grids                                 
   RDEPT  =    1.329    core radius for aug-charge                              
                                                                                
   Atomic configuration                                                         
    4 entries                                                                   
     n  l   j            E        occ.                                          
     1  0  0.50      -514.6923   2.0000                                         
     2  0  0.50       -23.9615   2.0000                                         
     2  1  0.50        -9.0305   4.0000                                         
     3  2  1.50        -9.5241   0.0000                                         
   Description                                                                  
     l       E           TYP  RCUT    TYP  RCUT                                 
     0    -23.9615318     23  1.200                                             
     0     -9.5240782     23  1.200                                             
     1     -9.0304911     23  1.520                                             
     1      8.1634956     23  1.520                                             
     2     -9.5240782      7  1.500                                             
  local pseudopotential read in
  partial core-charges read in
  partial kinetic energy density read in
  kinetic energy density of atom read in
  atomic valenz-charges read in
  non local Contribution for L=           0  read in
    real space projection operators read in
  non local Contribution for L=           0  read in
    real space projection operators read in
  non local Contribution for L=           1  read in
    real space projection operators read in
  non local Contribution for L=           1  read in
    real space projection operators read in
    PAW grid and wavefunctions read in
 
   number of l-projection  operators is LMAX  =           4
   number of lm-projection operators is LMMAX =           8
 
 POTCAR:    PAW_PBE Ir 06Sep2000                  
   VRHFIN =Ir: s1d8                                                             
   LEXCH  = PE                                                                  
   EATOM  =   560.1833 eV,   41.1723 Ry                                         
                                                                                
   TITEL  = PAW_PBE Ir 06Sep2000                                                
   LULTRA =        F    use ultrasoft PP ?                                      
   IUNSCR =        1    unscreen: 0-lin 1-nonlin 2-no                           
   RPACOR =    2.250    partial core radius                                     
   POMASS =  192.220; ZVAL   =    9.000    mass and valenz                      
   RCORE  =    2.600    outmost cutoff radius                                   
   RWIGS  =    2.690; RWIGS  =    1.423    wigner-seitz radius (au A)           
   ENMAX  =  210.864; ENMIN  =  158.148 eV                                      
   RCLOC  =    1.857    cutoff for local pot                                    
   LCOR   =        T    correct aug charges                                     
   LPAW   =        T    paw PP                                                  
   EAUG   =  318.962                                                            
   DEXC   =    0.000                                                            
   RMAX   =    2.667    core radius for proj-oper                               
   RAUG   =    1.300    factor for augmentation sphere                          
   RDEP   =    2.748    radius for radial grids                                 
   RDEPT  =    2.300    core radius for aug-charge                              
                                                                                
   Atomic configuration                                                         
   16 entries                                                                   
     n  l   j            E        occ.                                          
     1  0  0.50    -76100.0449   2.0000                                         
     2  0  0.50    -13308.1683   2.0000                                         
     2  1  1.50    -11558.0021   6.0000                                         
     3  0  0.50     -3110.7274   2.0000                                         
     3  1  1.50     -2599.2109   6.0000                                         
     3  2  2.50     -2037.1515  10.0000                                         
     4  0  0.50      -661.6001   2.0000                                         
     4  1  1.50      -493.8981   6.0000                                         
     4  2  2.50      -288.1909  10.0000                                         
     4  3  3.50       -59.5718  14.0000                                         
     5  0  0.50       -95.3879   2.0000                                         
     5  1  1.50       -52.2747   6.0000                                         
     5  2  2.50        -5.4180   8.0000                                         
     6  0  0.50        -5.5479   1.0000                                         
     6  1  1.50        -6.8029   0.0000                                         
     5  3  2.50        -1.3606   0.0000                                         
   Description                                                                  
     l       E           TYP  RCUT    TYP  RCUT                                 
     2     -5.4179967     23  2.600                                             
     2     -6.7785793     23  2.600                                             
     0     -5.5478636     23  2.600                                             
     0      2.2542272     23  2.600                                             
     1     -2.7211652     23  2.600                                             
     1     20.4087390     23  2.600                                             
  local pseudopotential read in
  partial core-charges read in
  partial kinetic energy density read in
  atomic valenz-charges read in
  non local Contribution for L=           2  read in
    real space projection operators read in
  non local Contribution for L=           2  read in
    real space projection operators read in
  non local Contribution for L=           0  read in
    real space projection operators read in
  non local Contribution for L=           0  read in
    real space projection operators read in
  non local Contribution for L=           1  read in
    real space projection operators read in
  non local Contribution for L=           1  read in
    real space projection operators read in
    PAW grid and wavefunctions read in
 
   number of l-projection  operators is LMAX  =           6
   number of lm-projection operators is LMMAX =          18
 
 POTCAR:    PAW_PBE O 08Apr2002                   
   VRHFIN =O: s2p4                                                              
   LEXCH  = PE                                                                  
   EATOM  =   432.3788 eV,   31.7789 Ry                                         
                                                                                
   TITEL  = PAW_PBE O 08Apr2002                                                 
   LULTRA =        F    use ultrasoft PP ?                                      
   IUNSCR =        1    unscreen: 0-lin 1-nonlin 2-no                           
   RPACOR =    1.200    partial core radius                                     
   POMASS =   16.000; ZVAL   =    6.000    mass and valenz                      
   RCORE  =    1.520    outmost cutoff radius                                   
   RWIGS  =    1.550; RWIGS  =    0.820    wigner-seitz radius (au A)           
   ENMAX  =  400.000; ENMIN  =  300.000 eV                                      
   ICORE  =        2    local potential                                         
   LCOR   =        T    correct aug charges                                     
   LPAW   =        T    paw PP                                                  
   EAUG   =  605.392                                                            
   DEXC   =    0.000                                                            
   RMAX   =    1.553    core radius for proj-oper                               
   RAUG   =    1.300    factor for augmentation sphere                          
   RDEP   =    1.550    radius for radial grids                                 
   RDEPT  =    1.329    core radius for aug-charge                              
                                                                                
   Atomic configuration                                                         
    4 entries                                                                   
     n  l   j            E        occ.                                          
     1  0  0.50      -514.6923   2.0000                                         
     2  0  0.50       -23.9615   2.0000                                         
     2  1  0.50        -9.0305   4.0000                                         
     3  2  1.50        -9.5241   0.0000                                         
   Description                                                                  
     l       E           TYP  RCUT    TYP  RCUT                                 
     0    -23.9615318     23  1.200                                             
     0     -9.5240782     23  1.200                                             
     1     -9.0304911     23  1.520                                             
     1      8.1634956     23  1.520                                             
     2     -9.5240782      7  1.500                                             
  local pseudopotential read in
  partial core-charges read in
  partial kinetic energy density read in
  kinetic energy density of atom read in
  atomic valenz-charges read in
  non local Contribution for L=           0  read in
    real space projection operators read in
  non local Contribution for L=           0  read in
    real space projection operators read in
  non local Contribution for L=           1  read in
    real space projection operators read in
  non local Contribution for L=           1  read in
    real space projection operators read in
    PAW grid and wavefunctions read in
 
   number of l-projection  operators is LMAX  =           4
   number of lm-projection operators is LMMAX =           8
 
 POTCAR:    PAW_PBE Ir 06Sep2000                  
   VRHFIN =Ir: s1d8                                                             
   LEXCH  = PE                                                                  
   EATOM  =   560.1833 eV,   41.1723 Ry                                         
                                                                                
   TITEL  = PAW_PBE Ir 06Sep2000                                                
   LULTRA =        F    use ultrasoft PP ?                                      
   IUNSCR =        1    unscreen: 0-lin 1-nonlin 2-no                           
   RPACOR =    2.250    partial core radius                                     
   POMASS =  192.220; ZVAL   =    9.000    mass and valenz                      
   RCORE  =    2.600    outmost cutoff radius                                   
   RWIGS  =    2.690; RWIGS  =    1.423    wigner-seitz radius (au A)           
   ENMAX  =  210.864; ENMIN  =  158.148 eV                                      
   RCLOC  =    1.857    cutoff for local pot                                    
   LCOR   =        T    correct aug charges                                     
   LPAW   =        T    paw PP                                                  
   EAUG   =  318.962                                                            
   DEXC   =    0.000                                                            
   RMAX   =    2.667    core radius for proj-oper                               
   RAUG   =    1.300    factor for augmentation sphere                          
   RDEP   =    2.748    radius for radial grids                                 
   RDEPT  =    2.300    core radius for aug-charge                              
                                                                                
   Atomic configuration                                                         
   16 entries                                                                   
     n  l   j            E        occ.                                          
     1  0  0.50    -76100.0449   2.0000                                         
     2  0  0.50    -13308.1683   2.0000                                         
     2  1  1.50    -11558.0021   6.0000                                         
     3  0  0.50     -3110.7274   2.0000                                         
     3  1  1.50     -2599.2109   6.0000                                         
     3  2  2.50     -2037.1515  10.0000                                         
     4  0  0.50      -661.6001   2.0000                                         
     4  1  1.50      -493.8981   6.0000                                         
     4  2  2.50      -288.1909  10.0000                                         
     4  3  3.50       -59.5718  14.0000                                         
     5  0  0.50       -95.3879   2.0000                                         
     5  1  1.50       -52.2747   6.0000                                         
     5  2  2.50        -5.4180   8.0000                                         
     6  0  0.50        -5.5479   1.0000                                         
     6  1  1.50        -6.8029   0.0000                                         
     5  3  2.50        -1.3606   0.0000                                         
   Description                                                                  
     l       E           TYP  RCUT    TYP  RCUT                                 
     2     -5.4179967     23  2.600                                             
     2     -6.7785793     23  2.600                                             
     0     -5.5478636     23  2.600                                             
     0      2.2542272     23  2.600                                             
     1     -2.7211652     23  2.600                                             
     1     20.4087390     23  2.600                                             
  local pseudopotential read in
  partial core-charges read in
  partial kinetic energy density read in
  atomic valenz-charges read in
  non local Contribution for L=           2  read in
    real space projection operators read in
  non local Contribution for L=           2  read in
    real space projection operators read in
  non local Contribution for L=           0  read in
    real space projection operators read in
  non local Contribution for L=           0  read in
    real space projection operators read in
  non local Contribution for L=           1  read in
    real space projection operators read in
  non local Contribution for L=           1  read in
    real space projection operators read in
    PAW grid and wavefunctions read in
 
   number of l-projection  operators is LMAX  =           6
   number of lm-projection operators is LMMAX =          18
 
 POTCAR:    PAW_PBE O 08Apr2002                   
   VRHFIN =O: s2p4                                                              
   LEXCH  = PE                                                                  
   EATOM  =   432.3788 eV,   31.7789 Ry                                         
                                                                                
   TITEL  = PAW_PBE O 08Apr2002                                                 
   LULTRA =        F    use ultrasoft PP ?                                      
   IUNSCR =        1    unscreen: 0-lin 1-nonlin 2-no                           
   RPACOR =    1.200    partial core radius                                     
   POMASS =   16.000; ZVAL   =    6.000    mass and valenz                      
   RCORE  =    1.520    outmost cutoff radius                                   
   RWIGS  =    1.550; RWIGS  =    0.820    wigner-seitz radius (au A)           
   ENMAX  =  400.000; ENMIN  =  300.000 eV                                      
   ICORE  =        2    local potential                                         
   LCOR   =        T    correct aug charges                                     
   LPAW   =        T    paw PP                                                  
   EAUG   =  605.392                                                            
   DEXC   =    0.000                                                            
   RMAX   =    1.553    core radius for proj-oper                               
   RAUG   =    1.300    factor for augmentation sphere                          
   RDEP   =    1.550    radius for radial grids                                 
   RDEPT  =    1.329    core radius for aug-charge                              
                                                                                
   Atomic configuration                                                         
    4 entries                                                                   
     n  l   j            E        occ.                                          
     1  0  0.50      -514.6923   2.0000                                         
     2  0  0.50       -23.9615   2.0000                                         
     2  1  0.50        -9.0305   4.0000                                         
     3  2  1.50        -9.5241   0.0000                                         
   Description                                                                  
     l       E           TYP  RCUT    TYP  RCUT                                 
     0    -23.9615318     23  1.200                                             
     0     -9.5240782     23  1.200                                             
     1     -9.0304911     23  1.520                                             
     1      8.1634956     23  1.520                                             
     2     -9.5240782      7  1.500                                             
  local pseudopotential read in
  partial core-charges read in
  partial kinetic energy density read in
  kinetic energy density of atom read in
  atomic valenz-charges read in
  non local Contribution for L=           0  read in
    real space projection operators read in
  non local Contribution for L=           0  read in
    real space projection operators read in
  non local Contribution for L=           1  read in
    real space projection operators read in
  non local Contribution for L=           1  read in
    real space projection operators read in
    PAW grid and wavefunctions read in
 
   number of l-projection  operators is LMAX  =           4
   number of lm-projection operators is LMMAX =           8
 
 POTCAR:    PAW_PBE Ir 06Sep2000                  
   VRHFIN =Ir: s1d8                                                             
   LEXCH  = PE                                                                  
   EATOM  =   560.1833 eV,   41.1723 Ry                                         
                                                                                
   TITEL  = PAW_PBE Ir 06Sep2000                                                
   LULTRA =        F    use ultrasoft PP ?                                      
   IUNSCR =        1    unscreen: 0-lin 1-nonlin 2-no                           
   RPACOR =    2.250    partial core radius                                     
   POMASS =  192.220; ZVAL   =    9.000    mass and valenz                      
   RCORE  =    2.600    outmost cutoff radius                                   
   RWIGS  =    2.690; RWIGS  =    1.423    wigner-seitz radius (au A)           
   ENMAX  =  210.864; ENMIN  =  158.148 eV                                      
   RCLOC  =    1.857    cutoff for local pot                                    
   LCOR   =        T    correct aug charges                                     
   LPAW   =        T    paw PP                                                  
   EAUG   =  318.962                                                            
   DEXC   =    0.000                                                            
   RMAX   =    2.667    core radius for proj-oper                               
   RAUG   =    1.300    factor for augmentation sphere                          
   RDEP   =    2.748    radius for radial grids                                 
   RDEPT  =    2.300    core radius for aug-charge                              
                                                                                
   Atomic configuration                                                         
   16 entries                                                                   
     n  l   j            E        occ.                                          
     1  0  0.50    -76100.0449   2.0000                                         
     2  0  0.50    -13308.1683   2.0000                                         
     2  1  1.50    -11558.0021   6.0000                                         
     3  0  0.50     -3110.7274   2.0000                                         
     3  1  1.50     -2599.2109   6.0000                                         
     3  2  2.50     -2037.1515  10.0000                                         
     4  0  0.50      -661.6001   2.0000                                         
     4  1  1.50      -493.8981   6.0000                                         
     4  2  2.50      -288.1909  10.0000                                         
     4  3  3.50       -59.5718  14.0000                                         
     5  0  0.50       -95.3879   2.0000                                         
     5  1  1.50       -52.2747   6.0000                                         
     5  2  2.50        -5.4180   8.0000                                         
     6  0  0.50        -5.5479   1.0000                                         
     6  1  1.50        -6.8029   0.0000                                         
     5  3  2.50        -1.3606   0.0000                                         
   Description                                                                  
     l       E           TYP  RCUT    TYP  RCUT                                 
     2     -5.4179967     23  2.600                                             
     2     -6.7785793     23  2.600                                             
     0     -5.5478636     23  2.600                                             
     0      2.2542272     23  2.600                                             
     1     -2.7211652     23  2.600                                             
     1     20.4087390     23  2.600                                             
  local pseudopotential read in
  partial core-charges read in
  partial kinetic energy density read in
  atomic valenz-charges read in
  non local Contribution for L=           2  read in
    real space projection operators read in
  non local Contribution for L=           2  read in
    real space projection operators read in
  non local Contribution for L=           0  read in
    real space projection operators read in
  non local Contribution for L=           0  read in
    real space projection operators read in
  non local Contribution for L=           1  read in
    real space projection operators read in
  non local Contribution for L=           1  read in
    real space projection operators read in
    PAW grid and wavefunctions read in
 
   number of l-projection  operators is LMAX  =           6
   number of lm-projection operators is LMMAX =          18
 
 POTCAR:    PAW_PBE O 08Apr2002                   
   VRHFIN =O: s2p4                                                              
   LEXCH  = PE                                                                  
   EATOM  =   432.3788 eV,   31.7789 Ry                                         
                                                                                
   TITEL  = PAW_PBE O 08Apr2002                                                 
   LULTRA =        F    use ultrasoft PP ?                                      
   IUNSCR =        1    unscreen: 0-lin 1-nonlin 2-no                           
   RPACOR =    1.200    partial core radius                                     
   POMASS =   16.000; ZVAL   =    6.000    mass and valenz                      
   RCORE  =    1.520    outmost cutoff radius                                   
   RWIGS  =    1.550; RWIGS  =    0.820    wigner-seitz radius (au A)           
   ENMAX  =  400.000; ENMIN  =  300.000 eV                                      
   ICORE  =        2    local potential                                         
   LCOR   =        T    correct aug charges                                     
   LPAW   =        T    paw PP                                                  
   EAUG   =  605.392                                                            
   DEXC   =    0.000                                                            
   RMAX   =    1.553    core radius for proj-oper                               
   RAUG   =    1.300    factor for augmentation sphere                          
   RDEP   =    1.550    radius for radial grids                                 
   RDEPT  =    1.329    core radius for aug-charge                              
                                                                                
   Atomic configuration                                                         
    4 entries                                                                   
     n  l   j            E        occ.                                          
     1  0  0.50      -514.6923   2.0000                                         
     2  0  0.50       -23.9615   2.0000                                         
     2  1  0.50        -9.0305   4.0000                                         
     3  2  1.50        -9.5241   0.0000                                         
   Description                                                                  
     l       E           TYP  RCUT    TYP  RCUT                                 
     0    -23.9615318     23  1.200                                             
     0     -9.5240782     23  1.200                                             
     1     -9.0304911     23  1.520                                             
     1      8.1634956     23  1.520                                             
     2     -9.5240782      7  1.500                                             
  local pseudopotential read in
  partial core-charges read in
  partial kinetic energy density read in
  kinetic energy density of atom read in
  atomic valenz-charges read in
  non local Contribution for L=           0  read in
    real space projection operators read in
  non local Contribution for L=           0  read in
    real space projection operators read in
  non local Contribution for L=           1  read in
    real space projection operators read in
  non local Contribution for L=           1  read in
    real space projection operators read in
    PAW grid and wavefunctions read in
 
   number of l-projection  operators is LMAX  =           4
   number of lm-projection operators is LMMAX =           8
 
 Optimization of the real space projectors (new method)

 maximal supplied QI-value         = 14.36
 optimisation between [QCUT,QGAM] = [ 11.35, 22.84] = [ 36.05,146.02] Ry 
 Optimized for a Real-space Cutoff    1.52 Angstroem

   l    n(q)    QCUT    max X(q) W(low)/X(q) W(high)/X(q)  e(spline) 
   2      9    11.346   134.116    0.47E-03    0.13E-03    0.92E-06
   2      9    11.346   130.192    0.47E-03    0.13E-03    0.92E-06
   0     10    11.346    60.310    0.74E-04    0.13E-03    0.69E-06
   0     10    11.346    39.218    0.68E-04    0.12E-03    0.65E-06
   1     10    11.346    18.439    0.15E-03    0.34E-04    0.20E-06
   1     10    11.346    12.760    0.12E-03    0.31E-04    0.16E-06
 Optimization of the real space projectors (new method)

 maximal supplied QI-value         = 24.76
 optimisation between [QCUT,QGAM] = [ 11.39, 22.77] = [ 36.31,145.25] Ry 
 Optimized for a Real-space Cutoff    1.00 Angstroem

   l    n(q)    QCUT    max X(q) W(low)/X(q) W(high)/X(q)  e(spline) 
   0      7    11.387    20.381    0.39E-03    0.13E-02    0.15E-06
   0      7    11.387    15.268    0.42E-03    0.14E-02    0.17E-06
   1      6    11.387     5.964    0.41E-03    0.11E-02    0.17E-06
   1      6    11.387     5.382    0.39E-03    0.87E-03    0.15E-06
 Optimization of the real space projectors (new method)

 maximal supplied QI-value         = 14.36
 optimisation between [QCUT,QGAM] = [ 11.35, 22.84] = [ 36.05,146.02] Ry 
 Optimized for a Real-space Cutoff    1.52 Angstroem

   l    n(q)    QCUT    max X(q) W(low)/X(q) W(high)/X(q)  e(spline) 
   2      9    11.346   134.116    0.47E-03    0.13E-03    0.92E-06
   2      9    11.346   130.192    0.47E-03    0.13E-03    0.92E-06
   0     10    11.346    60.310    0.74E-04    0.13E-03    0.69E-06
   0     10    11.346    39.218    0.68E-04    0.12E-03    0.65E-06
   1     10    11.346    18.439    0.15E-03    0.34E-04    0.20E-06
   1     10    11.346    12.760    0.12E-03    0.31E-04    0.16E-06
 Optimization of the real space projectors (new method)

 maximal supplied QI-value         = 24.76
 optimisation between [QCUT,QGAM] = [ 11.39, 22.77] = [ 36.31,145.25] Ry 
 Optimized for a Real-space Cutoff    1.00 Angstroem

   l    n(q)    QCUT    max X(q) W(low)/X(q) W(high)/X(q)  e(spline) 
   0      7    11.387    20.381    0.39E-03    0.13E-02    0.15E-06
   0      7    11.387    15.268    0.42E-03    0.14E-02    0.17E-06
   1      6    11.387     5.964    0.41E-03    0.11E-02    0.17E-06
   1      6    11.387     5.382    0.39E-03    0.87E-03    0.15E-06
 Optimization of the real space projectors (new method)

 maximal supplied QI-value         = 14.36
 optimisation between [QCUT,QGAM] = [ 11.35, 22.84] = [ 36.05,146.02] Ry 
 Optimized for a Real-space Cutoff    1.52 Angstroem

   l    n(q)    QCUT    max X(q) W(low)/X(q) W(high)/X(q)  e(spline) 
   2      9    11.346   134.116    0.47E-03    0.13E-03    0.92E-06
   2      9    11.346   130.192    0.47E-03    0.13E-03    0.92E-06
   0     10    11.346    60.310    0.74E-04    0.13E-03    0.69E-06
   0     10    11.346    39.218    0.68E-04    0.12E-03    0.65E-06
   1     10    11.346    18.439    0.15E-03    0.34E-04    0.20E-06
   1     10    11.346    12.760    0.12E-03    0.31E-04    0.16E-06
 Optimization of the real space projectors (new method)

 maximal supplied QI-value         = 24.76
 optimisation between [QCUT,QGAM] = [ 11.39, 22.77] = [ 36.31,145.25] Ry 
 Optimized for a Real-space Cutoff    1.00 Angstroem

   l    n(q)    QCUT    max X(q) W(low)/X(q) W(high)/X(q)  e(spline) 
   0      7    11.387    20.381    0.39E-03    0.13E-02    0.15E-06
   0      7    11.387    15.268    0.42E-03    0.14E-02    0.17E-06
   1      6    11.387     5.964    0.41E-03    0.11E-02    0.17E-06
   1      6    11.387     5.382    0.39E-03    0.87E-03    0.15E-06
 Optimization of the real space projectors (new method)

 maximal supplied QI-value         = 14.36
 optimisation between [QCUT,QGAM] = [ 11.35, 22.84] = [ 36.05,146.02] Ry 
 Optimized for a Real-space Cutoff    1.52 Angstroem

   l    n(q)    QCUT    max X(q) W(low)/X(q) W(high)/X(q)  e(spline) 
   2      9    11.346   134.116    0.47E-03    0.13E-03    0.92E-06
   2      9    11.346   130.192    0.47E-03    0.13E-03    0.92E-06
   0     10    11.346    60.310    0.74E-04    0.13E-03    0.69E-06
   0     10    11.346    39.218    0.68E-04    0.12E-03    0.65E-06
   1     10    11.346    18.439    0.15E-03    0.34E-04    0.20E-06
   1     10    11.346    12.760    0.12E-03    0.31E-04    0.16E-06
 Optimization of the real space projectors (new method)

 maximal supplied QI-value         = 24.76
 optimisation between [QCUT,QGAM] = [ 11.39, 22.77] = [ 36.31,145.25] Ry 
 Optimized for a Real-space Cutoff    1.00 Angstroem

   l    n(q)    QCUT    max X(q) W(low)/X(q) W(high)/X(q)  e(spline) 
   0      7    11.387    20.381    0.39E-03    0.13E-02    0.15E-06
   0      7    11.387    15.268    0.42E-03    0.14E-02    0.17E-06
   1      6    11.387     5.964    0.41E-03    0.11E-02    0.17E-06
   1      6    11.387     5.382    0.39E-03    0.87E-03    0.15E-06

 ----------------------------------------------------------------------------- 
|                                                                             |
|  ADVICE TO THIS USER RUNNING 'VASP/VAMP'   (HEAR YOUR MASTER'S VOICE ...):  |
|                                                                             |
|      You enforced a specific xc-type in the INCAR file,                     |
|      a different type was found on the POTCAR file                          |
|          I HOPE YOU KNOW, WHAT YOU ARE  DOING                               |
|                                                                             |
 ----------------------------------------------------------------------------- 

  PAW_PBE Ir 06Sep2000                  :
 energy of atom  1       EATOM= -560.1833
 kinetic energy error for atom=    0.0018 (will be added to EATOM!!)
  PAW_PBE O 08Apr2002                   :
 energy of atom  2       EATOM= -432.3788
 kinetic energy error for atom=    0.0224 (will be added to EATOM!!)
  PAW_PBE Ir 06Sep2000                  :
 energy of atom  3       EATOM= -560.1833
 kinetic energy error for atom=    0.0018 (will be added to EATOM!!)
  PAW_PBE O 08Apr2002                   :
 energy of atom  4       EATOM= -432.3788
 kinetic energy error for atom=    0.0224 (will be added to EATOM!!)
  PAW_PBE Ir 06Sep2000                  :
 energy of atom  5       EATOM= -560.1833
 kinetic energy error for atom=    0.0018 (will be added to EATOM!!)
  PAW_PBE O 08Apr2002                   :
 energy of atom  6       EATOM= -432.3788
 kinetic energy error for atom=    0.0224 (will be added to EATOM!!)
  PAW_PBE Ir 06Sep2000                  :
 energy of atom  7       EATOM= -560.1833
 kinetic energy error for atom=    0.0018 (will be added to EATOM!!)
  PAW_PBE O 08Apr2002                   :
 energy of atom  8       EATOM= -432.3788
 kinetic energy error for atom=    0.0224 (will be added to EATOM!!)
 
 
 POSCAR: Ir  O Ir  O Ir  O Ir  O                 
  positions in cartesian coordinates
  No initial velocities read in
 exchange correlation table for  LEXCH =        9
   RHO(1)=    0.500       N(1)  =     2000
   RHO(2)=  100.500       N(2)  =     4000

 VTST: version 3.2, (02/03/18)

 CHAIN: initializing optimizer
 
 OPT: Using VASP Conjugate-Gradient optimizer
 CHAIN: Read ICHAIN            0
 
 POSCAR: Ir  O Ir  O Ir  O Ir  O                 
  positions in cartesian coordinates
  No initial velocities read in
 


--------------------------------------------------------------------------------------------------------


 ion  position               nearest neighbor table
   1  0.125  0.250  0.188-  21 2.00  29 2.00  17 2.02  25 2.02  26 2.02  18 2.02   2 3.20  50 3.20

   2  0.375  0.250  0.188-  22 2.00  30 2.00  26 2.02  18 2.02  65 2.02  73 2.02   1 3.20  49 3.20

   3  0.125  0.000  0.062-  23 2.00 127 2.00  19 2.02  27 2.02  28 2.02  20 2.02  52 3.20   4 3.20

   4  0.375  0.000  0.062-  24 2.00 128 2.00  28 2.02  67 2.02  75 2.02  20 2.02  51 3.20   3 3.20

   5  0.000  0.250  0.062-  17 2.00  31 2.02  80 2.02  72 2.02  23 2.02   6 3.20  54 3.20
   6  0.250  0.250  0.062-  18 2.00  31 2.02  32 2.02  23 2.02  24 2.02   5 3.20  53 3.20
   7  0.000  0.000  0.188-  35 1.97  27 2.00  29 2.02  78 2.02 117 2.02 166 2.02  56 3.20   8 3.20

   8  0.250  0.000  0.188-  36 1.97  28 2.00  30 2.02  29 2.02 117 2.02 118 2.02   7 3.20  55 3.20

   9  0.125  0.250  0.439-  41 1.99  42 1.99  37 2.01  45 2.01  33 2.04  34 2.04  10 3.20  58 3.20

  10  0.375  0.250  0.439-  42 1.99  89 1.99  46 2.01  38 2.01  81 2.04  34 2.04   9 3.20  57 3.20

  11  0.125  0.000  0.312-  39 2.00 143 2.00  44 2.02  43 2.02  35 2.03  36 2.03  60 3.20  12 3.20

  12  0.375  0.000  0.312-  40 2.00 144 2.00  91 2.02  44 2.02  36 2.03  83 2.03  59 3.20  11 3.20

  13  0.000  0.250  0.313-  33 1.99  25 2.01  39 2.02  47 2.02  88 2.02  96 2.02  14 3.20  62 3.20

  14  0.250  0.250  0.313-  34 1.99  26 2.01  39 2.02  40 2.02  47 2.02  48 2.02  13 3.20  61 3.20

  15  0.000  0.000  0.435-  43 1.96  45 2.02  94 2.02 133 2.02 182 2.02  64 3.20  16 3.20
  16  0.250  0.000  0.435-  44 1.96  45 2.02  46 2.02 133 2.02 134 2.02  15 3.20  63 3.20
  17  0.000  0.250  0.140-   5 2.00   1 2.02  50 2.02
  18  0.250  0.250  0.140-   6 2.00   2 2.02   1 2.02
  19  0.000  0.000  0.015-   3 2.02  52 2.02
  20  0.250  0.000  0.015-   3 2.02   4 2.02
  21  0.125  0.404  0.188-   1 2.00 103 2.02 104 2.02
  22  0.375  0.404  0.188-   2 2.00 104 2.02 151 2.02
  23  0.125  0.154  0.062-   3 2.00   5 2.02   6 2.02
  24  0.375  0.154  0.062-   4 2.00   6 2.02  53 2.02
  25  0.000  0.250  0.235-  13 2.01   1 2.02  50 2.02
  26  0.250  0.250  0.235-  14 2.01   2 2.02   1 2.02
  27  0.000  0.000  0.110-   7 2.00   3 2.02  52 2.02
  28  0.250  0.000  0.110-   8 2.00   4 2.02   3 2.02
  29  0.125  0.096  0.188-   1 2.00   7 2.02   8 2.02
  30  0.375  0.096  0.188-   2 2.00   8 2.02  55 2.02
  31  0.125  0.346  0.062-  99 2.00   6 2.02   5 2.02
  32  0.375  0.346  0.062- 100 2.00  53 2.02   6 2.02
  33  0.000  0.250  0.390-  13 1.99   9 2.04  58 2.04
  34  0.250  0.250  0.390-  14 1.99  10 2.04   9 2.04
  35  0.000  0.000  0.264-   7 1.97  11 2.03  60 2.03
  36  0.250  0.000  0.264-   8 1.97  11 2.03  12 2.03
  37  0.125  0.405  0.441-   9 2.01 111 2.02 112 2.02
  38  0.375  0.405  0.441-  10 2.01 112 2.02 159 2.02
  39  0.125  0.154  0.313-  11 2.00  13 2.02  14 2.02
  40  0.375  0.154  0.313-  12 2.00  14 2.02  61 2.02
  41  0.000  0.250  0.484-   9 1.99  58 1.99
  42  0.250  0.250  0.484-   9 1.99  10 1.99
  43  0.000  0.000  0.359-  15 1.96  11 2.02  60 2.02
  44  0.250  0.000  0.359-  16 1.96  12 2.02  11 2.02
  45  0.125  0.095  0.441-   9 2.01  15 2.02  16 2.02
  46  0.375  0.095  0.441-  10 2.01  16 2.02  63 2.02
  47  0.125  0.346  0.313- 107 2.00  14 2.02  13 2.02
  48  0.375  0.346  0.313- 108 2.00  61 2.02  14 2.02
  49  0.625  0.250  0.188-  69 2.00  77 2.00  65 2.02  73 2.02  74 2.02  66 2.02   2 3.20  50 3.20

  50  0.875  0.250  0.188-  70 2.00  78 2.00  66 2.02  17 2.02  74 2.02  25 2.02   1 3.20  49 3.20

  51  0.625  0.000  0.062-  71 2.00 175 2.00  67 2.02  75 2.02  76 2.02  68 2.02   4 3.20  52 3.20

  52  0.875  0.000  0.062-  72 2.00 176 2.00  68 2.02  19 2.02  76 2.02  27 2.02   3 3.20  51 3.20

  53  0.500  0.250  0.062-  65 2.00  32 2.02  79 2.02  71 2.02  24 2.02  54 3.20   6 3.20
  54  0.750  0.250  0.062-  66 2.00  79 2.02  80 2.02  71 2.02  72 2.02  53 3.20   5 3.20
  55  0.500  0.000  0.188-  83 1.97  75 2.00  77 2.02  30 2.02 118 2.02 165 2.02  56 3.20   8 3.20

  56  0.750  0.000  0.188-  84 1.97  76 2.00  78 2.02  77 2.02 165 2.02 166 2.02   7 3.20  55 3.20

  57  0.625  0.250  0.439-  89 1.99  90 1.99  85 2.01  93 2.01  81 2.04  82 2.04  10 3.20  58 3.20

  58  0.875  0.250  0.439-  41 1.99  90 1.99  86 2.01  94 2.01  82 2.04  33 2.04   9 3.20  57 3.20

  59  0.625  0.000  0.312-  87 2.00 191 2.00  92 2.02  91 2.02  83 2.03  84 2.03  12 3.20  60 3.20

  60  0.875  0.000  0.312-  88 2.00 192 2.00  92 2.02  43 2.02  84 2.03  35 2.03  11 3.20  59 3.20

  61  0.500  0.250  0.313-  81 1.99  73 2.01  40 2.02  48 2.02  87 2.02  95 2.02  14 3.20  62 3.20

  62  0.750  0.250  0.313-  82 1.99  74 2.01  87 2.02  88 2.02  95 2.02  96 2.02  13 3.20  61 3.20

  63  0.500  0.000  0.435-  91 1.96  46 2.02  93 2.02 134 2.02 181 2.02  16 3.20  64 3.20
  64  0.750  0.000  0.435-  92 1.96  93 2.02  94 2.02 181 2.02 182 2.02  63 3.20  15 3.20
  65  0.500  0.250  0.140-  53 2.00  49 2.02   2 2.02
  66  0.750  0.250  0.140-  54 2.00  50 2.02  49 2.02
  67  0.500  0.000  0.015-   4 2.02  51 2.02
  68  0.750  0.000  0.015-  51 2.02  52 2.02
  69  0.625  0.404  0.188-  49 2.00 151 2.02 152 2.02
  70  0.875  0.404  0.188-  50 2.00 103 2.02 152 2.02
  71  0.625  0.154  0.062-  51 2.00  53 2.02  54 2.02
  72  0.875  0.154  0.062-  52 2.00   5 2.02  54 2.02
  73  0.500  0.250  0.235-  61 2.01  49 2.02   2 2.02
  74  0.750  0.250  0.235-  62 2.01  50 2.02  49 2.02
  75  0.500  0.000  0.110-  55 2.00  51 2.02   4 2.02
  76  0.750  0.000  0.110-  56 2.00  52 2.02  51 2.02
  77  0.625  0.096  0.188-  49 2.00  55 2.02  56 2.02
  78  0.875  0.096  0.188-  50 2.00   7 2.02  56 2.02
  79  0.625  0.346  0.062- 147 2.00  54 2.02  53 2.02
  80  0.875  0.346  0.062- 148 2.00  54 2.02   5 2.02
  81  0.500  0.250  0.390-  61 1.99  57 2.04  10 2.04
  82  0.750  0.250  0.390-  62 1.99  58 2.04  57 2.04
  83  0.500  0.000  0.264-  55 1.97  12 2.03  59 2.03
  84  0.750  0.000  0.264-  56 1.97  59 2.03  60 2.03
  85  0.625  0.405  0.441-  57 2.01 159 2.02 160 2.02
  86  0.875  0.405  0.441-  58 2.01 111 2.02 160 2.02
  87  0.625  0.154  0.313-  59 2.00  61 2.02  62 2.02
  88  0.875  0.154  0.313-  60 2.00  13 2.02  62 2.02
  89  0.500  0.250  0.484-  10 1.99  57 1.99
  90  0.750  0.250  0.484-  57 1.99  58 1.99
  91  0.500  0.000  0.359-  63 1.96  59 2.02  12 2.02
  92  0.750  0.000  0.359-  64 1.96  60 2.02  59 2.02
  93  0.625  0.095  0.441-  57 2.01  63 2.02  64 2.02
  94  0.875  0.095  0.441-  58 2.01  15 2.02  64 2.02
  95  0.625  0.346  0.313- 155 2.00  62 2.02  61 2.02
  96  0.875  0.346  0.313- 156 2.00  62 2.02  13 2.02
  97  0.125  0.750  0.188- 117 2.00 125 2.00 113 2.02 121 2.02 122 2.02 114 2.02  98 3.20 146 3.20

  98  0.375  0.750  0.188- 118 2.00 126 2.00 122 2.02 114 2.02 161 2.02 169 2.02  97 3.20 145 3.20

  99  0.125  0.500  0.062- 119 2.00  31 2.00 116 2.02 115 2.02 123 2.02 124 2.02 100 3.20 148 3.20

 100  0.375  0.500  0.062- 120 2.00  32 2.00 116 2.02 124 2.02 163 2.02 171 2.02  99 3.20 147 3.20

 101  0.000  0.750  0.062- 113 2.00 127 2.02 176 2.02 168 2.02 119 2.02 102 3.20 150 3.20
 102  0.250  0.750  0.062- 114 2.00 127 2.02 128 2.02 119 2.02 120 2.02 101 3.20 149 3.20
 103  0.000  0.500  0.188- 131 1.97 123 2.00 125 2.02 174 2.02  21 2.02  70 2.02 152 3.20 104 3.20

 104  0.250  0.500  0.188- 132 1.97 124 2.00 126 2.02 125 2.02  21 2.02  22 2.02 103 3.20 151 3.20

 105  0.125  0.750  0.439- 137 1.99 138 1.99 133 2.01 141 2.01 129 2.04 130 2.04 106 3.20 154 3.20

 106  0.375  0.750  0.439- 138 1.99 185 1.99 142 2.01 134 2.01 177 2.04 130 2.04 105 3.20 153 3.20

 107  0.125  0.500  0.312-  47 2.00 135 2.00 139 2.02 140 2.02 132 2.03 131 2.03 108 3.20 156 3.20

 108  0.375  0.500  0.312-  48 2.00 136 2.00 140 2.02 187 2.02 179 2.03 132 2.03 107 3.20 155 3.20

 109  0.000  0.750  0.313- 129 1.99 121 2.01 135 2.02 143 2.02 184 2.02 192 2.02 110 3.20 158 3.20

 110  0.250  0.750  0.313- 130 1.99 122 2.01 135 2.02 136 2.02 143 2.02 144 2.02 109 3.20 157 3.20

 111  0.000  0.500  0.435- 139 1.96  86 2.02  37 2.02 141 2.02 190 2.02 160 3.20 112 3.20
 112  0.250  0.500  0.435- 140 1.96  38 2.02  37 2.02 141 2.02 142 2.02 111 3.20 159 3.20
 113  0.000  0.750  0.140- 101 2.00  97 2.02 146 2.02
 114  0.250  0.750  0.140- 102 2.00  98 2.02  97 2.02
 115  0.000  0.500  0.015-  99 2.02 148 2.02
 116  0.250  0.500  0.015-  99 2.02 100 2.02
 117  0.125  0.904  0.188-  97 2.00   8 2.02   7 2.02
 118  0.375  0.904  0.188-  98 2.00  55 2.02   8 2.02
 119  0.125  0.654  0.062-  99 2.00 101 2.02 102 2.02
 120  0.375  0.654  0.062- 100 2.00 102 2.02 149 2.02
 121  0.000  0.750  0.235- 109 2.01  97 2.02 146 2.02
 122  0.250  0.750  0.235- 110 2.01  98 2.02  97 2.02
 123  0.000  0.500  0.110- 103 2.00  99 2.02 148 2.02
 124  0.250  0.500  0.110- 104 2.00 100 2.02  99 2.02
 125  0.125  0.596  0.188-  97 2.00 103 2.02 104 2.02
 126  0.375  0.596  0.188-  98 2.00 104 2.02 151 2.02
 127  0.125  0.846  0.062-   3 2.00 101 2.02 102 2.02
 128  0.375  0.846  0.062-   4 2.00 102 2.02 149 2.02
 129  0.000  0.750  0.390- 109 1.99 105 2.04 154 2.04
 130  0.250  0.750  0.390- 110 1.99 106 2.04 105 2.04
 131  0.000  0.500  0.264- 103 1.97 107 2.03 156 2.03
 132  0.250  0.500  0.264- 104 1.97 107 2.03 108 2.03
 133  0.125  0.905  0.441- 105 2.01  16 2.02  15 2.02
 134  0.375  0.905  0.441- 106 2.01  63 2.02  16 2.02
 135  0.125  0.654  0.313- 107 2.00 109 2.02 110 2.02
 136  0.375  0.654  0.313- 108 2.00 110 2.02 157 2.02
 137  0.000  0.750  0.484- 105 1.99 154 1.99
 138  0.250  0.750  0.484- 105 1.99 106 1.99
 139  0.000  0.500  0.359- 111 1.96 107 2.02 156 2.02
 140  0.250  0.500  0.359- 112 1.96 108 2.02 107 2.02
 141  0.125  0.595  0.441- 105 2.01 111 2.02 112 2.02
 142  0.375  0.595  0.441- 106 2.01 112 2.02 159 2.02
 143  0.125  0.846  0.313-  11 2.00 109 2.02 110 2.02
 144  0.375  0.846  0.313-  12 2.00 110 2.02 157 2.02
 145  0.625  0.750  0.188- 165 2.00 173 2.00 161 2.02 169 2.02 170 2.02 162 2.02  98 3.20 146 3.20

 146  0.875  0.750  0.188- 166 2.00 174 2.00 162 2.02 113 2.02 170 2.02 121 2.02  97 3.20 145 3.20

 147  0.625  0.500  0.062- 167 2.00  79 2.00 164 2.02 163 2.02 171 2.02 172 2.02 148 3.20 100 3.20

 148  0.875  0.500  0.062- 168 2.00  80 2.00 123 2.02 164 2.02 115 2.02 172 2.02 147 3.20  99 3.20

 149  0.500  0.750  0.062- 161 2.00 128 2.02 175 2.02 167 2.02 120 2.02 150 3.20 102 3.20
 150  0.750  0.750  0.062- 162 2.00 175 2.02 176 2.02 167 2.02 168 2.02 149 3.20 101 3.20
 151  0.500  0.500  0.188- 179 1.97 171 2.00 173 2.02 126 2.02  22 2.02  69 2.02 152 3.20 104 3.20

 152  0.750  0.500  0.188- 180 1.97 172 2.00 174 2.02 173 2.02  69 2.02  70 2.02 103 3.20 151 3.20

 153  0.625  0.750  0.439- 185 1.99 186 1.99 181 2.01 189 2.01 177 2.04 178 2.04 106 3.20 154 3.20

 154  0.875  0.750  0.439- 137 1.99 186 1.99 182 2.01 190 2.01 178 2.04 129 2.04 105 3.20 153 3.20

 155  0.625  0.500  0.312-  95 2.00 183 2.00 187 2.02 188 2.02 180 2.03 179 2.03 156 3.20 108 3.20

 156  0.875  0.500  0.312-  96 2.00 184 2.00 139 2.02 188 2.02 131 2.03 180 2.03 155 3.20 107 3.20

 157  0.500  0.750  0.313- 177 1.99 169 2.01 136 2.02 144 2.02 183 2.02 191 2.02 110 3.20 158 3.20

 158  0.750  0.750  0.313- 178 1.99 170 2.01 183 2.02 184 2.02 191 2.02 192 2.02 109 3.20 157 3.20

 159  0.500  0.500  0.435- 187 1.96  85 2.02 142 2.02  38 2.02 189 2.02 112 3.20 160 3.20
 160  0.750  0.500  0.435- 188 1.96  86 2.02  85 2.02 189 2.02 190 2.02 159 3.20 111 3.20
 161  0.500  0.750  0.140- 149 2.00 145 2.02  98 2.02
 162  0.750  0.750  0.140- 150 2.00 146 2.02 145 2.02
 163  0.500  0.500  0.015- 100 2.02 147 2.02
 164  0.750  0.500  0.015- 147 2.02 148 2.02
 165  0.625  0.904  0.188- 145 2.00  56 2.02  55 2.02
 166  0.875  0.904  0.188- 146 2.00  56 2.02   7 2.02
 167  0.625  0.654  0.062- 147 2.00 149 2.02 150 2.02
 168  0.875  0.654  0.062- 148 2.00 101 2.02 150 2.02
 169  0.500  0.750  0.235- 157 2.01 145 2.02  98 2.02
 170  0.750  0.750  0.235- 158 2.01 146 2.02 145 2.02
 171  0.500  0.500  0.110- 151 2.00 147 2.02 100 2.02
 172  0.750  0.500  0.110- 152 2.00 148 2.02 147 2.02
 173  0.625  0.596  0.188- 145 2.00 151 2.02 152 2.02
 174  0.875  0.596  0.188- 146 2.00 103 2.02 152 2.02
 175  0.625  0.846  0.062-  51 2.00 149 2.02 150 2.02
 176  0.875  0.846  0.062-  52 2.00 101 2.02 150 2.02
 177  0.500  0.750  0.390- 157 1.99 153 2.04 106 2.04
 178  0.750  0.750  0.390- 158 1.99 154 2.04 153 2.04
 179  0.500  0.500  0.264- 151 1.97 108 2.03 155 2.03
 180  0.750  0.500  0.264- 152 1.97 155 2.03 156 2.03
 181  0.625  0.905  0.441- 153 2.01  64 2.02  63 2.02
 182  0.875  0.905  0.441- 154 2.01  64 2.02  15 2.02
 183  0.625  0.654  0.313- 155 2.00 157 2.02 158 2.02
 184  0.875  0.654  0.313- 156 2.00 109 2.02 158 2.02
 185  0.500  0.750  0.484- 106 1.99 153 1.99
 186  0.750  0.750  0.484- 153 1.99 154 1.99
 187  0.500  0.500  0.359- 159 1.96 155 2.02 108 2.02
 188  0.750  0.500  0.359- 160 1.96 156 2.02 155 2.02
 189  0.625  0.595  0.441- 153 2.01 159 2.02 160 2.02
 190  0.875  0.595  0.441- 154 2.01 111 2.02 160 2.02
 191  0.625  0.846  0.313-  59 2.00 157 2.02 158 2.02
 192  0.875  0.846  0.313-  60 2.00 109 2.02 158 2.02
 
  LATTYP: Found a simple orthorhombic cell.
 ALAT       =    12.8085320000
 B/A-ratio  =     1.0103020393
 C/A-ratio  =     2.0206040786
  
  Lattice vectors:
  
 A1 = (  12.8085320000,   0.0000000000,   0.0000000000)
 A2 = (   0.0000000000,  12.9404860000,   0.0000000000)
 A3 = (   0.0000000000,   0.0000000000,  25.8809720000)


Analysis of symmetry for initial positions (statically):
=====================================================================
 Subroutine PRICEL returns:
 Original cell was already a primitive cell.
 

 Routine SETGRP: Setting up the symmetry group for a 
 simple orthorhombic supercell.


 Subroutine GETGRP returns: Found  1 space group operations
 (whereof  1 operations were pure point group operations)
 out of a pool of  8 trial point group operations.


The static configuration has the point symmetry C_1 .


Analysis of symmetry for dynamics (positions and initial velocities):
=====================================================================
 Subroutine PRICEL returns:
 Original cell was already a primitive cell.
 

 Routine SETGRP: Setting up the symmetry group for a 
 simple orthorhombic supercell.


 Subroutine GETGRP returns: Found  1 space group operations
 (whereof  1 operations were pure point group operations)
 out of a pool of  8 trial point group operations.


The dynamic configuration has the point symmetry C_1 .


Analysis of constrained symmetry for selective dynamics:
=====================================================================
 Subroutine PRICEL returns:
 Original cell was already a primitive cell.
 

 Routine SETGRP: Setting up the symmetry group for a 
 simple orthorhombic supercell.


 Subroutine GETGRP returns: Found  1 space group operations
 (whereof  1 operations were pure point group operations)
 out of a pool of  8 trial point group operations.


The constrained configuration has the point symmetry C_1 .


Analysis of structural, dynamic, and magnetic symmetry:
=====================================================================
 Subroutine PRICEL returns:
 Original cell was already a primitive cell.
 

 Routine SETGRP: Setting up the symmetry group for a 
 simple orthorhombic supercell.


 Subroutine GETGRP returns: Found  1 space group operations
 (whereof  1 operations were pure point group operations)
 out of a pool of  8 trial point group operations.


The magnetic configuration has the point symmetry C_1 .


 Subroutine INISYM returns: Found  1 space group operations
 (whereof  1 operations are pure point group operations),
 and found     1 'primitive' translations

 
 
 KPOINTS: Automatic mesh                          

Automatic generation of k-mesh.
Space group operators:
 irot       det(A)        alpha          n_x          n_y          n_z        tau_x        tau_y        tau_z
    1     1.000000     0.000001     1.000000     0.000000     0.000000     0.000000     0.000000     0.000000
 
 Subroutine IBZKPT returns following result:
 ===========================================
 
 Found      4 irreducible k-points:
 
 Following reciprocal coordinates:
            Coordinates               Weight
  0.000000  0.000000  0.000000      1.000000
  0.500000  0.000000  0.000000      1.000000
  0.000000  0.500000  0.000000      1.000000
  0.500000  0.500000  0.000000      1.000000
 
 Following cartesian coordinates:
            Coordinates               Weight
  0.000000  0.000000  0.000000      1.000000
  0.039036  0.000000  0.000000      1.000000
  0.000000  0.038638  0.000000      1.000000
  0.039036  0.038638  0.000000      1.000000
 


--------------------------------------------------------------------------------------------------------




 Dimension of arrays:
   k-points           NKPTS =      4   k-points in BZ     NKDIM =      4   number of bands    NBANDS=    864
   number of dos      NEDOS =    301   number of ions     NIONS =    192
   non local maximal  LDIM  =      6   non local SUM 2l+1 LMDIM =     18
   total plane-waves  NPLWV = 725760
   max r-space proj   IRMAX =   2532   max aug-charges    IRDMAX=  12432
   dimension x,y,z NGX =    70 NGY =   72 NGZ =  144
   dimension x,y,z NGXF=   140 NGYF=  144 NGZF=  288
   support grid    NGXF=   140 NGYF=  144 NGZF=  288
   ions per type =              16  32  16  32  16  32  16  32
   NGX,Y,Z   is equivalent  to a cutoff of   9.09,  9.25,  9.25 a.u.
   NGXF,Y,Z  is equivalent  to a cutoff of  18.17, 18.50, 18.50 a.u.

 SYSTEM =  unknown system                          
 POSCAR =  Ir  O Ir  O Ir  O Ir  O                 

 Startparameter for this run:
   NWRITE =      2    write-flag & timer
   PREC   = normal    normal or accurate (medium, high low for compatibility)
   ISTART =      0    job   : 0-new  1-cont  2-samecut
   ICHARG =      2    charge: 1-file 2-atom 10-const
   ISPIN  =      2    spin polarized calculation?
   LNONCOLLINEAR =      F non collinear calculations
   LSORBIT =      F    spin-orbit coupling
   INIWAV =      1    electr: 0-lowe 1-rand  2-diag
   LASPH  =      F    aspherical Exc in radial PAW
   METAGGA=      F    non-selfconsistent MetaGGA calc.

 Electronic Relaxation 1
   ENCUT  =  500.0 eV  36.75 Ry    6.06 a.u.  23.35 23.59 47.19*2*pi/ulx,y,z
   ENINI  =  500.0     initial cutoff
   ENAUG  =  605.4 eV  augmentation charge cutoff
   NELM   =     60;   NELMIN=  4; NELMDL= -5     # of ELM steps 
   EDIFF  = 0.1E-04   stopping-criterion for ELM
   LREAL  =      T    real-space projection
   NLSPLINE    = F    spline interpolate recip. space projectors
   LCOMPAT=      F    compatible to vasp.4.4
   GGA_COMPAT  = T    GGA compatible to vasp.4.4-vasp.4.6
   LMAXPAW     = -100 max onsite density
   LMAXMIX     =    2 max onsite mixed and CHGCAR
   VOSKOWN=      0    Vosko Wilk Nusair interpolation
   ROPT   =   -0.00050  -0.00050  -0.00050  -0.00050
   ROPT   =   -0.00050  -0.00050  -0.00050  -0.00050
 Ionic relaxation
   EDIFFG = -.5E-01   stopping-criterion for IOM
   NSW    =    500    number of steps for IOM
   NBLOCK =      1;   KBLOCK =    500    inner block; outer block 
   IBRION =      2    ionic relax: 0-MD 1-quasi-New 2-CG
   NFREE  =      1    steps in history (QN), initial steepest desc. (CG)
   ISIF   =      2    stress and relaxation
   IWAVPR =     11    prediction:  0-non 1-charg 2-wave 3-comb
   ISYM   =      2    0-nonsym 1-usesym 2-fastsym
   LCORR  =      T    Harris-Foulkes like correction to forces

   POTIM  = 0.5000    time-step for ionic-motion
   TEIN   =    0.0    initial temperature
   TEBEG  =    0.0;   TEEND  =   0.0 temperature during run
   SMASS  =  -3.00    Nose mass-parameter (am)
   estimated Nose-frequenzy (Omega)   =  0.10E-29 period in steps =****** mass=  -0.375E-26a.u.
   SCALEE = 1.0000    scale energy and forces
   NPACO  =    256;   APACO  = 16.0  distance and # of slots for P.C.
   PSTRESS=    0.0 pullay stress

  Mass of Ions in am
   POMASS = 192.22 16.00192.22 16.00192.22 16.00192.22 16.00
  Ionic Valenz
   ZVAL   =   9.00  6.00  9.00  6.00  9.00  6.00  9.00  6.00
  Atomic Wigner-Seitz radii
   RWIGS  =  -1.00 -1.00 -1.00 -1.00 -1.00 -1.00 -1.00 -1.00
  virtual crystal weights 
   VCA    =   1.00  1.00  1.00  1.00  1.00  1.00  1.00  1.00
   NELECT =    1344.0000    total number of electrons
   NUPDOWN=      -1.0000    fix difference up-down

 DOS related values:
   EMIN   =  10.00;   EMAX   =-10.00  energy-range for DOS
   EFERMI =   0.00
   ISMEAR =     0;   SIGMA  =   0.05  broadening in eV -4-tet -1-fermi 0-gaus

 Electronic relaxation 2 (details)
   IALGO  =     68    algorithm
   LDIAG  =      T    sub-space diagonalisation (order eigenvalues)
   LSUBROT=      F    optimize rotation matrix (better conditioning)
   TURBO    =      0    0=normal 1=particle mesh
   IRESTART =      0    0=no restart 2=restart with 2 vectors
   NREBOOT  =      0    no. of reboots
   NMIN     =      0    reboot dimension
   EREF     =   0.00    reference energy to select bands
   IMIX   =      4    mixing-type and parameters
     AMIX     =   0.40;   BMIX     =  1.00
     AMIX_MAG =   1.60;   BMIX_MAG =  1.00
     AMIN     =   0.10
     WC   =   100.;   INIMIX=   1;  MIXPRE=   1;  MAXMIX= -45

 Intra band minimization:
   WEIMIN = 0.0010     energy-eigenvalue tresh-hold
   EBREAK =  0.29E-08  absolut break condition
   DEPER  =   0.30     relativ break condition  

   TIME   =   0.40     timestep for ELM

  volume/ion in A,a.u.               =      22.34       150.77
  Fermi-wavevector in a.u.,A,eV,Ry     =   1.111897  2.101180 16.821075  1.236314
  Thomas-Fermi vector in A             =   2.248465
 
 Write flags
   LWAVE        =      F    write WAVECAR
   LDOWNSAMPLE  =      F    k-point downsampling of WAVECAR
   LCHARG       =      F    write CHGCAR
   LVTOT        =      F    write LOCPOT, total local potential
   LVHAR        =      F    write LOCPOT, Hartree potential only
   LELF         =      F    write electronic localiz. function (ELF)
   LORBIT       =      0    0 simple, 1 ext, 2 COOP (PROOUT), +10 PAW based schemes


 Dipole corrections
   LMONO  =      F    monopole corrections only (constant potential shift)
   LDIPOL =      T    correct potential (dipole corrections)
   IDIPOL =      3    1-x, 2-y, 3-z, 4-all directions 
   EPSILON=  1.0000000 bulk dielectric constant

 Exchange correlation treatment:
   GGA     =    RP    GGA type
   LEXCH   =     9    internal setting for exchange type
   VOSKOWN=      0    Vosko Wilk Nusair interpolation
   LHFCALC =     F    Hartree Fock is set to
   LHFONE  =     F    Hartree Fock one center treatment
   AEXX    =    0.0000 exact exchange contribution

 Linear response parameters
   LEPSILON=     F    determine dielectric tensor
   LRPA    =     F    only Hartree local field effects (RPA)
   LNABLA  =     F    use nabla operator in PAW spheres
   LVEL    =     F    velocity operator in full k-point grid
   LINTERFAST=   F  fast interpolation
   KINTER  =     0    interpolate to denser k-point grid
   CSHIFT  =0.1000    complex shift for real part using Kramers Kronig
   OMEGAMAX=  -1.0    maximum frequency
   DEG_THRESHOLD= 0.2000000E-02 threshold for treating states as degnerate
   RTIME   =   -0.100 relaxation time in fs
  (WPLASMAI=    0.000 imaginary part of plasma frequency in eV, 0.658/RTIME)
   DFIELD  = 0.0000000 0.0000000 0.0000000 field for delta impulse in time
 
 Orbital magnetization related:
   ORBITALMAG=     F  switch on orbital magnetization
   LCHIMAG   =     F  perturbation theory with respect to B field
   DQ        =  0.001000  dq finite difference perturbation B field
   LLRAUG    =     F  two centre corrections for induced B field



--------------------------------------------------------------------------------------------------------


 conjugate gradient relaxation of ions
   using selective dynamics as specified on POSCAR
   WARNING: If single coordinates had been selected the selection of coordinates
            is made according to the corresponding   d i r e c t   coordinates!
            Don't support selection of single cartesian coordinates -- sorry ...
  !
 charge density and potential will be updated during run
 spin polarized calculation
 RMM-DIIS sequential band-by-band and
  variant of blocked Davidson during initial phase
 perform sub-space diagonalisation
    before iterative eigenvector-optimisation
 modified Broyden-mixing scheme, WC =      100.0
 initial mixing is a Kerker type mixing with AMIX =  0.4000 and BMIX =      1.0000
 Hartree-type preconditioning will be used
 using additional bands          192
 real space projection scheme for non local part
 use partial core corrections
 calculate Harris-corrections to forces 
   (improved forces if not selfconsistent)
 use gradient corrections 
 use of overlap-Matrix (Vanderbilt PP)
 Gauss-broadening in eV      SIGMA  =   0.05


--------------------------------------------------------------------------------------------------------


  energy-cutoff  :      500.00
  volume of cell :     4289.74
      direct lattice vectors                 reciprocal lattice vectors
    12.808532000  0.000000000  0.000000000     0.078072959  0.000000000  0.000000000
     0.000000000 12.940486000  0.000000000     0.000000000  0.077276850  0.000000000
     0.000000000  0.000000000 25.880972000     0.000000000  0.000000000  0.038638425

  length of vectors
    12.808532000 12.940486000 25.880972000     0.078072959  0.077276850  0.038638425


 
 k-points in units of 2pi/SCALE and weight: Automatic mesh                          
   0.00000000  0.00000000  0.00000000       0.250
   0.03903648  0.00000000  0.00000000       0.250
   0.00000000  0.03863843  0.00000000       0.250
   0.03903648  0.03863843  0.00000000       0.250
 
 k-points in reciprocal lattice and weights: Automatic mesh                          
   0.00000000  0.00000000  0.00000000       0.250
   0.50000000  0.00000000  0.00000000       0.250
   0.00000000  0.50000000  0.00000000       0.250
   0.50000000  0.50000000  0.00000000       0.250
 
 position of ions in fractional coordinates (direct lattice) 
   0.12500000  0.25000000  0.18750000
   0.37500000  0.25000000  0.18750000
   0.12500000  0.00000000  0.06250000
   0.37500000  0.00000000  0.06250000
   0.00000000  0.25000000  0.06250000
   0.25000000  0.25000000  0.06250000
   0.00000000  0.00000000  0.18750000
   0.25000000  0.00000000  0.18750000
   0.12500000  0.25000000  0.43873602
   0.37500000  0.25000000  0.43873602
   0.12500000  0.00000000  0.31170171
   0.37500000  0.00000000  0.31170171
   0.00000000  0.25000000  0.31302025
   0.25000000  0.25000000  0.31302025
   0.00000000  0.00000000  0.43482044
   0.25000000  0.00000000  0.43482044
   0.00000000  0.25000000  0.13961000
   0.25000000  0.25000000  0.13961000
   0.00000000  0.00000000  0.01461000
   0.25000000  0.00000000  0.01461000
   0.12500000  0.40422000  0.18750000
   0.37500000  0.40422000  0.18750000
   0.12500000  0.15422000  0.06250000
   0.37500000  0.15422000  0.06250000
   0.00000000  0.25000000  0.23539000
   0.25000000  0.25000000  0.23539000
   0.00000000  0.00000000  0.11039000
   0.25000000  0.00000000  0.11039000
   0.12500000  0.09578000  0.18750000
   0.37500000  0.09578000  0.18750000
   0.12500000  0.34578000  0.06250000
   0.37500000  0.34578000  0.06250000
   0.00000000  0.25000000  0.39006130
   0.25000000  0.25000000  0.39006130
   0.00000000  0.00000000  0.26374133
   0.25000000  0.00000000  0.26374133
   0.12500000  0.40495406  0.44067954
   0.37500000  0.40495406  0.44067954
   0.12500000  0.15421895  0.31281846
   0.37500000  0.15421895  0.31281846
   0.00000000  0.25000000  0.48449910
   0.25000000  0.25000000  0.48449910
   0.00000000  0.00000000  0.35903889
   0.25000000  0.00000000  0.35903889
   0.12500000  0.09504594  0.44067954
   0.37500000  0.09504594  0.44067954
   0.12500000  0.34578105  0.31281846
   0.37500000  0.34578105  0.31281846
   0.62500000  0.25000000  0.18750000
   0.87500000  0.25000000  0.18750000
   0.62500000  0.00000000  0.06250000
   0.87500000  0.00000000  0.06250000
   0.50000000  0.25000000  0.06250000
   0.75000000  0.25000000  0.06250000
   0.50000000  0.00000000  0.18750000
   0.75000000  0.00000000  0.18750000
   0.62500000  0.25000000  0.43873602
   0.87500000  0.25000000  0.43873602
   0.62500000  0.00000000  0.31170171
   0.87500000  0.00000000  0.31170171
   0.50000000  0.25000000  0.31302025
   0.75000000  0.25000000  0.31302025
   0.50000000  0.00000000  0.43482044
   0.75000000  0.00000000  0.43482044
   0.50000000  0.25000000  0.13961000
   0.75000000  0.25000000  0.13961000
   0.50000000  0.00000000  0.01461000
   0.75000000  0.00000000  0.01461000
   0.62500000  0.40422000  0.18750000
   0.87500000  0.40422000  0.18750000
   0.62500000  0.15422000  0.06250000
   0.87500000  0.15422000  0.06250000
   0.50000000  0.25000000  0.23539000
   0.75000000  0.25000000  0.23539000
   0.50000000  0.00000000  0.11039000
   0.75000000  0.00000000  0.11039000
   0.62500000  0.09578000  0.18750000
   0.87500000  0.09578000  0.18750000
   0.62500000  0.34578000  0.06250000
   0.87500000  0.34578000  0.06250000
   0.50000000  0.25000000  0.39006130
   0.75000000  0.25000000  0.39006130
   0.50000000  0.00000000  0.26374133
   0.75000000  0.00000000  0.26374133
   0.62500000  0.40495406  0.44067954
   0.87500000  0.40495406  0.44067954
   0.62500000  0.15421895  0.31281846
   0.87500000  0.15421895  0.31281846
   0.50000000  0.25000000  0.48449910
   0.75000000  0.25000000  0.48449910
   0.50000000  0.00000000  0.35903889
   0.75000000  0.00000000  0.35903889
   0.62500000  0.09504594  0.44067954
   0.87500000  0.09504594  0.44067954
   0.62500000  0.34578105  0.31281846
   0.87500000  0.34578105  0.31281846
   0.12500000  0.75000000  0.18750000
   0.37500000  0.75000000  0.18750000
   0.12500000  0.50000000  0.06250000
   0.37500000  0.50000000  0.06250000
   0.00000000  0.75000000  0.06250000
   0.25000000  0.75000000  0.06250000
   0.00000000  0.50000000  0.18750000
   0.25000000  0.50000000  0.18750000
   0.12500000  0.75000000  0.43873602
   0.37500000  0.75000000  0.43873602
   0.12500000  0.50000000  0.31170171
   0.37500000  0.50000000  0.31170171
   0.00000000  0.75000000  0.31302025
   0.25000000  0.75000000  0.31302025
   0.00000000  0.50000000  0.43482044
   0.25000000  0.50000000  0.43482044
   0.00000000  0.75000000  0.13961000
   0.25000000  0.75000000  0.13961000
   0.00000000  0.50000000  0.01461000
   0.25000000  0.50000000  0.01461000
   0.12500000  0.90422000  0.18750000
   0.37500000  0.90422000  0.18750000
   0.12500000  0.65422000  0.06250000
   0.37500000  0.65422000  0.06250000
   0.00000000  0.75000000  0.23539000
   0.25000000  0.75000000  0.23539000
   0.00000000  0.50000000  0.11039000
   0.25000000  0.50000000  0.11039000
   0.12500000  0.59578000  0.18750000
   0.37500000  0.59578000  0.18750000
   0.12500000  0.84578000  0.06250000
   0.37500000  0.84578000  0.06250000
   0.00000000  0.75000000  0.39006130
   0.25000000  0.75000000  0.39006130
   0.00000000  0.50000000  0.26374133
   0.25000000  0.50000000  0.26374133
   0.12500000  0.90495406  0.44067954
   0.37500000  0.90495406  0.44067954
   0.12500000  0.65421895  0.31281846
   0.37500000  0.65421895  0.31281846
   0.00000000  0.75000000  0.48449910
   0.25000000  0.75000000  0.48449910
   0.00000000  0.50000000  0.35903889
   0.25000000  0.50000000  0.35903889
   0.12500000  0.59504594  0.44067954
   0.37500000  0.59504594  0.44067954
   0.12500000  0.84578105  0.31281846
   0.37500000  0.84578105  0.31281846
   0.62500000  0.75000000  0.18750000
   0.87500000  0.75000000  0.18750000
   0.62500000  0.50000000  0.06250000
   0.87500000  0.50000000  0.06250000
   0.50000000  0.75000000  0.06250000
   0.75000000  0.75000000  0.06250000
   0.50000000  0.50000000  0.18750000
   0.75000000  0.50000000  0.18750000
   0.62500000  0.75000000  0.43873602
   0.87500000  0.75000000  0.43873602
   0.62500000  0.50000000  0.31170171
   0.87500000  0.50000000  0.31170171
   0.50000000  0.75000000  0.31302025
   0.75000000  0.75000000  0.31302025
   0.50000000  0.50000000  0.43482044
   0.75000000  0.50000000  0.43482044
   0.50000000  0.75000000  0.13961000
   0.75000000  0.75000000  0.13961000
   0.50000000  0.50000000  0.01461000
   0.75000000  0.50000000  0.01461000
   0.62500000  0.90422000  0.18750000
   0.87500000  0.90422000  0.18750000
   0.62500000  0.65422000  0.06250000
   0.87500000  0.65422000  0.06250000
   0.50000000  0.75000000  0.23539000
   0.75000000  0.75000000  0.23539000
   0.50000000  0.50000000  0.11039000
   0.75000000  0.50000000  0.11039000
   0.62500000  0.59578000  0.18750000
   0.87500000  0.59578000  0.18750000
   0.62500000  0.84578000  0.06250000
   0.87500000  0.84578000  0.06250000
   0.50000000  0.75000000  0.39006130
   0.75000000  0.75000000  0.39006130
   0.50000000  0.50000000  0.26374133
   0.75000000  0.50000000  0.26374133
   0.62500000  0.90495406  0.44067954
   0.87500000  0.90495406  0.44067954
   0.62500000  0.65421895  0.31281846
   0.87500000  0.65421895  0.31281846
   0.50000000  0.75000000  0.48449910
   0.75000000  0.75000000  0.48449910
   0.50000000  0.50000000  0.35903889
   0.75000000  0.50000000  0.35903889
   0.62500000  0.59504594  0.44067954
   0.87500000  0.59504594  0.44067954
   0.62500000  0.84578105  0.31281846
   0.87500000  0.84578105  0.31281846
 
 position of ions in cartesian coordinates  (Angst):
   1.60106650  3.23512150  4.85268225
   4.80319950  3.23512150  4.85268225
   1.60106650  0.00000000  1.61756075
   4.80319950  0.00000000  1.61756075
   0.00000000  3.23512150  1.61756075
   3.20213300  3.23512150  1.61756075
   0.00000000  0.00000000  4.85268225
   3.20213300  0.00000000  4.85268225
   1.60106650  3.23512150 11.35491473
   4.80319950  3.23512150 11.35491473
   1.60106650  0.00000000  8.06714326
   4.80319950  0.00000000  8.06714326
   0.00000000  3.23512150  8.10126838
   3.20213300  3.23512150  8.10126838
   0.00000000  0.00000000 11.25357560
   3.20213300  0.00000000 11.25357560
   0.00000000  3.23512150  3.61324250
   3.20213300  3.23512150  3.61324250
   0.00000000  0.00000000  0.37812100
   3.20213300  0.00000000  0.37812100
   1.60106650  5.23080325  4.85268225
   4.80319950  5.23080325  4.85268225
   1.60106650  1.99568175  1.61756075
   4.80319950  1.99568175  1.61756075
   0.00000000  3.23512150  6.09212200
   3.20213300  3.23512150  6.09212200
   0.00000000  0.00000000  2.85700050
   3.20213300  0.00000000  2.85700050
   1.60106650  1.23943975  4.85268225
   4.80319950  1.23943975  4.85268225
   1.60106650  4.47456125  1.61756075
   4.80319950  4.47456125  1.61756075
   0.00000000  3.23512150 10.09516554
   3.20213300  3.23512150 10.09516554
   0.00000000  0.00000000  6.82588207
   3.20213300  0.00000000  6.82588207
   1.60106650  5.24030231 11.40521475
   4.80319950  5.24030231 11.40521475
   1.60106650  1.99566811  8.09604572
   4.80319950  1.99566811  8.09604572
   0.00000000  3.23512150 12.53930759
   3.20213300  3.23512150 12.53930759
   0.00000000  0.00000000  9.29227550
   3.20213300  0.00000000  9.29227550
   1.60106650  1.22994069 11.40521475
   4.80319950  1.22994069 11.40521475
   1.60106650  4.47457489  8.09604572
   4.80319950  4.47457489  8.09604572
   8.00533250  3.23512150  4.85268225
  11.20746550  3.23512150  4.85268225
   8.00533250  0.00000000  1.61756075
  11.20746550  0.00000000  1.61756075
   6.40426600  3.23512150  1.61756075
   9.60639900  3.23512150  1.61756075
   6.40426600  0.00000000  4.85268225
   9.60639900  0.00000000  4.85268225
   8.00533250  3.23512150 11.35491473
  11.20746550  3.23512150 11.35491473
   8.00533250  0.00000000  8.06714326
  11.20746550  0.00000000  8.06714326
   6.40426600  3.23512150  8.10126838
   9.60639900  3.23512150  8.10126838
   6.40426600  0.00000000 11.25357560
   9.60639900  0.00000000 11.25357560
   6.40426600  3.23512150  3.61324250
   9.60639900  3.23512150  3.61324250
   6.40426600  0.00000000  0.37812100
   9.60639900  0.00000000  0.37812100
   8.00533250  5.23080325  4.85268225
  11.20746550  5.23080325  4.85268225
   8.00533250  1.99568175  1.61756075
  11.20746550  1.99568175  1.61756075
   6.40426600  3.23512150  6.09212200
   9.60639900  3.23512150  6.09212200
   6.40426600  0.00000000  2.85700050
   9.60639900  0.00000000  2.85700050
   8.00533250  1.23943975  4.85268225
  11.20746550  1.23943975  4.85268225
   8.00533250  4.47456125  1.61756075
  11.20746550  4.47456125  1.61756075
   6.40426600  3.23512150 10.09516554
   9.60639900  3.23512150 10.09516554
   6.40426600  0.00000000  6.82588207
   9.60639900  0.00000000  6.82588207
   8.00533250  5.24030231 11.40521475
  11.20746550  5.24030231 11.40521475
   8.00533250  1.99566811  8.09604572
  11.20746550  1.99566811  8.09604572
   6.40426600  3.23512150 12.53930759
   9.60639900  3.23512150 12.53930759
   6.40426600  0.00000000  9.29227550
   9.60639900  0.00000000  9.29227550
   8.00533250  1.22994069 11.40521475
  11.20746550  1.22994069 11.40521475
   8.00533250  4.47457489  8.09604572
  11.20746550  4.47457489  8.09604572
[...]
   -.818E+00 -.322E+02 -.554E+03   0.885E+00 0.339E+02 0.554E+03   -.690E-01 -.166E+01 -.158E+00   0.332E-02 -.265E-01 0.970E-01
   0.815E+00 -.322E+02 -.554E+03   -.881E+00 0.339E+02 0.555E+03   0.687E-01 -.166E+01 -.158E+00   -.409E-02 -.263E-01 0.971E-01
 -----------------------------------------------------------------------------------------------
   0.142E-01 0.248E-02 0.825E+02   0.300E-12 -.199E-12 0.841E-11   -.290E-01 -.327E-02 -.950E+02   -.972E-03 0.134E-02 0.127E+02
 
 
 POSITION                                       TOTAL-FORCE (eV/Angst)
 -----------------------------------------------------------------------------------
      1.60107      3.23512      4.85268        -0.010589      0.000197     -0.241724
      4.80320      3.23512      4.85268         0.010661      0.000116     -0.241629
      1.60107      0.00000      1.61756        -0.011852      0.000181     -0.974019
      4.80320      0.00000      1.61756         0.012014      0.000192     -0.974005
      0.00000      3.23512      1.61756         0.000049      0.000117      1.594711
      3.20213      3.23512      1.61756         0.000092      0.000120      1.607845
      0.00000      0.00000      4.85268        -0.000061      0.000171     -0.355719
      3.20213      0.00000      4.85268         0.000102      0.000158     -0.358220
      1.60096      3.23512     11.36940         0.015704      0.000411     -0.013734
      4.80330      3.23512     11.36938        -0.015766      0.000292     -0.013496
      1.60086     -0.00001      8.07487        -0.005858      0.000003      0.015550
      4.80340     -0.00000      8.07489         0.006120     -0.000010      0.015202
      0.00015      3.23506      8.10530        -0.006086      0.003767      0.003956
      3.20213      3.23502      8.10519         0.000915      0.003396      0.026360
     -0.00000      0.00000     11.26190        -0.000124     -0.000106      0.029458
      3.20212      0.00000     11.26287         0.000272      0.000042      0.033390
      0.00000      3.23512      3.61324         0.000052      0.000060     -0.124374
      3.20213      3.23512      3.61324         0.000162      0.000064     -0.129620
      0.00000      0.00000      0.37812         0.000109      0.000025      0.795387
      3.20213      0.00000      0.37812         0.000086      0.000024      0.786039
      1.60107      5.23080      4.85268        -0.053289     -0.006103     -0.043034
      4.80320      5.23080      4.85268         0.053444     -0.006096     -0.043069
      1.60107      1.99568      1.61756        -0.053384     -0.050009     -0.689446
      4.80320      1.99568      1.61756         0.053541     -0.050005     -0.689449
      0.00000      3.23512      6.09212         0.001059     -0.000202      0.403371
      3.20213      3.23512      6.09212         0.000068     -0.000310      0.410698
      0.00000      0.00000      2.85700         0.000108      0.000027      0.221977
      3.20213      0.00000      2.85700         0.000086      0.000032      0.226690
      1.60107      1.23944      4.85268        -0.053312      0.006572     -0.043061
      4.80320      1.23944      4.85268         0.053494      0.006578     -0.043041
      1.60107      4.47456      1.61756        -0.053371      0.050131     -0.689527
      4.80320      4.47456      1.61756         0.053546      0.050143     -0.689518
      0.00000      3.23513     10.09980         0.000606      0.000120      0.035897
      3.20212      3.23516     10.10139         0.000080      0.000162      0.008946
     -0.00001      0.00001      6.83849         0.001170      0.000004     -0.042653
      3.20213      0.00000      6.83812         0.000103      0.000025      0.000606
      1.60220      5.24027     11.40371         0.010103      0.000235      0.024379
      4.80207      5.24027     11.40369        -0.009911      0.000312      0.024249
      1.59910      1.99645      8.09900         0.001996     -0.003151      0.015692
      4.80518      1.99644      8.09900        -0.001426     -0.003338      0.015762
     -0.00001      3.23511     12.55507         0.000236     -0.000069      0.008772
      3.20213      3.23509     12.55791         0.000180     -0.000051      0.019208
     -0.00006      0.00001      9.30238         0.000819      0.000027      0.000310
      3.20213     -0.00001      9.30495         0.000018     -0.000103     -0.005130
      1.60218      1.22999     11.40375         0.009842     -0.000304      0.024776
      4.80207      1.22998     11.40381        -0.009812     -0.000181      0.024886
      1.59897      4.47371      8.09855         0.003729      0.003250      0.015301
      4.80531      4.47371      8.09854        -0.002680      0.002469      0.015066
      8.00533      3.23512      4.85268        -0.010383      0.000222     -0.241480
     11.20747      3.23512      4.85268         0.010362      0.000198     -0.241416
      8.00533      0.00000      1.61756        -0.011814      0.000179     -0.974029
     11.20747      0.00000      1.61756         0.011975      0.000189     -0.974044
      6.40427      3.23512      1.61756         0.000124      0.000116      1.594734
      9.60640      3.23512      1.61756         0.000068      0.000120      1.607917
      6.40427      0.00000      4.85268         0.000181      0.000202     -0.355326
      9.60640      0.00000      4.85268        -0.000019      0.000201     -0.358168
      8.00522      3.23511     11.36937         0.016588      0.000614     -0.013810
     11.20759      3.23512     11.36940        -0.016569      0.000758     -0.014136
      8.00510     -0.00010      8.07486        -0.003345      0.001263      0.014432
     11.20775     -0.00001      8.07481         0.001072      0.000117      0.016688
      6.40423      3.23496      8.10531         0.002491      0.006359      0.005049
      9.60644      3.23509      8.10514        -0.000450      0.001930      0.026273
      6.40427      0.00001     11.26193         0.000145     -0.000228      0.029492
      9.60640      0.00000     11.26282        -0.000052     -0.000135      0.032611
      6.40427      3.23512      3.61324         0.000151      0.000069     -0.124371
      9.60640      3.23512      3.61324         0.000166      0.000045     -0.129554
      6.40427      0.00000      0.37812         0.000061      0.000019      0.795393
      9.60640      0.00000      0.37812         0.000081      0.000020      0.786028
      8.00533      5.23080      4.85268        -0.053225     -0.006104     -0.043089
     11.20747      5.23080      4.85268         0.053368     -0.006107     -0.043080
      8.00533      1.99568      1.61756        -0.053351     -0.050009     -0.689424
     11.20747      1.99568      1.61756         0.053513     -0.050020     -0.689415
      6.40427      3.23512      6.09212        -0.000050     -0.000572      0.403649
      9.60640      3.23512      6.09212         0.000019     -0.000066      0.410098
      6.40427      0.00000      2.85700         0.000066      0.000019      0.221980
      9.60640      0.00000      2.85700         0.000105      0.000022      0.226707
      8.00533      1.23944      4.85268        -0.053242      0.006573     -0.043130
     11.20747      1.23944      4.85268         0.053390      0.006545     -0.043180
      8.00533      4.47456      1.61756        -0.053357      0.050125     -0.689507
     11.20747      4.47456      1.61756         0.053524      0.050126     -0.689505
      6.40426      3.23514     10.09980        -0.000052     -0.000092      0.035694
      9.60642      3.23512     10.10133         0.000430      0.000288      0.008769
      6.40428      0.00003      6.83853        -0.000485      0.000025     -0.042630
      9.60640      0.00003      6.83808         0.000337     -0.000141      0.000583
      8.00646      5.24031     11.40381         0.009534     -0.000434      0.024540
     11.20633      5.24031     11.40385        -0.009421     -0.000361      0.024753
      8.00340      1.99645      8.09898         0.000872     -0.003693      0.015724
     11.20955      1.99659      8.09854        -0.000641     -0.004565      0.015511
      6.40427      3.23510     12.55502         0.000020     -0.000055      0.008800
      9.60640      3.23511     12.55787         0.000064     -0.000051      0.019208
      6.40432      0.00000      9.30239        -0.000383     -0.000119      0.000887
      9.60641      0.00003      9.30489        -0.006795     -0.005064     -0.004433
      8.00648      1.22996     11.40377         0.009770      0.000142      0.024702
     11.20633      1.22997     11.40371        -0.009495      0.000045      0.024574
      8.00323      4.47370      8.09853         0.001814      0.002441      0.015304
     11.20954      4.47375      8.09853        -0.000422      0.002631      0.015124
      1.60107      9.70536      4.85268        -0.010516     -0.000205     -0.241487
      4.80320      9.70536      4.85268         0.010721     -0.000165     -0.241452
      1.60107      6.47024      1.61756        -0.011775     -0.000199     -0.974274
      4.80320      6.47024      1.61756         0.011946     -0.000206     -0.974299
      0.00000      9.70536      1.61756         0.000051     -0.000117      1.593716
      3.20213      9.70536      1.61756         0.000092     -0.000122      1.606859
      0.00000      6.47024      4.85268        -0.000123     -0.000181     -0.355147
      3.20213      6.47024      4.85268         0.000068     -0.000176     -0.358090
      1.60098      9.70537     11.36941         0.014650     -0.000453     -0.012992
      4.80327      9.70537     11.36939        -0.014387     -0.000262     -0.012915
      1.60080      6.47025      8.07480        -0.002308      0.000110      0.017579
      4.80348      6.47026      8.07478         0.002372     -0.000232      0.017500
      0.00011      9.70543      8.10527        -0.004914     -0.003425      0.005567
      3.20212      9.70546      8.10518         0.000367     -0.003020      0.026922
      0.00001      6.47024     11.26193        -0.000637      0.000137      0.027680
      3.20213      6.47024     11.26281         0.000007     -0.000006      0.031135
      0.00000      9.70536      3.61324         0.000036     -0.000069     -0.124094
      3.20213      9.70536      3.61324         0.000086     -0.000074     -0.129358
      0.00000      6.47024      0.37812         0.000083     -0.000027      0.795551
      3.20213      6.47024      0.37812         0.000078     -0.000027      0.786189
      1.60107     11.70105      4.85268        -0.053325     -0.006144     -0.042986
      4.80320     11.70105      4.85268         0.053504     -0.006137     -0.042993
      1.60107      8.46592      1.61756        -0.053373     -0.050445     -0.689775
      4.80320      8.46592      1.61756         0.053536     -0.050446     -0.689762
      0.00000      9.70536      6.09212         0.000820      0.000179      0.403528
      3.20213      9.70536      6.09212         0.000043      0.000286      0.410969
      0.00000      6.47024      2.85700         0.000124     -0.000035      0.222454
      3.20213      6.47024      2.85700         0.000088     -0.000040      0.227044
      1.60107      7.70968      4.85268        -0.053297      0.005657     -0.043051
      4.80320      7.70968      4.85268         0.053475      0.005655     -0.043058
      1.60107     10.94480      1.61756        -0.053387      0.050309     -0.689777
      4.80320     10.94480      1.61756         0.053551      0.050304     -0.689776
      0.00001      9.70537     10.09984         0.000353     -0.000045      0.035122
      3.20213      9.70533     10.10139         0.000048     -0.000091      0.008885
     -0.00002      6.47024      6.83852         0.000390      0.000059     -0.043110
      3.20213      6.47025      6.83807         0.000142      0.000071      0.000956
      1.60218     11.71051     11.40377         0.009933      0.000343      0.024862
      4.80207     11.71051     11.40383        -0.009869      0.000310      0.024957
      1.59896      8.46680      8.09857         0.003543     -0.003758      0.015294
      4.80531      8.46682      8.09855        -0.003381     -0.003741      0.015247
      0.00001      9.70538     12.55512         0.000036      0.000053      0.008090
      3.20213      9.70540     12.55796         0.000130      0.000043      0.018969
     -0.00001      6.47024      9.30236         0.000597     -0.000061      0.000897
      3.20215      6.47026      9.30489        -0.014823      0.000087     -0.004054
      1.60220      7.70022     11.40371         0.010192     -0.000233      0.024316
      4.80207      7.70022     11.40368        -0.010008     -0.000312      0.024157
      1.59908     10.94402      8.09900         0.001838      0.003414      0.015568
      4.80517     10.94403      8.09898        -0.001614      0.003141      0.015594
      8.00533      9.70536      4.85268        -0.010318     -0.000214     -0.241212
     11.20747      9.70536      4.85268         0.010441     -0.000249     -0.241205
      8.00533      6.47024      1.61756        -0.011796     -0.000202     -0.974271
     11.20747      6.47024      1.61756         0.011947     -0.000200     -0.974268
      6.40427      9.70536      1.61756         0.000113     -0.000108      1.593740
      9.60640      9.70536      1.61756         0.000073     -0.000106      1.606904
      6.40427      6.47024      4.85268         0.000231     -0.000200     -0.355397
      9.60640      6.47024      4.85268         0.000080     -0.000213     -0.357118
      8.00523      9.70537     11.36935         0.015198     -0.000553     -0.012616
     11.20757      9.70538     11.36938        -0.015212     -0.000728     -0.012828
      8.00503      6.47026      8.07483        -0.001134     -0.001120      0.015286
     11.20777      6.47025      8.07485         0.000970     -0.000061      0.014150
      6.40416      9.70544      8.10528         0.004053     -0.003393      0.004597
      9.60640      9.70535      8.10510        -0.000085     -0.000928      0.026611
      6.40425      6.47024     11.26189         0.000740      0.000153      0.027656
      9.60639      6.47025     11.26289         0.000148      0.000058      0.030499
      6.40427      9.70536      3.61324         0.000123     -0.000088     -0.124105
      9.60640      9.70536      3.61324         0.000094     -0.000075     -0.129268
      6.40427      6.47024      0.37812         0.000080     -0.000027      0.795549
      9.60640      6.47024      0.37812         0.000085     -0.000028      0.786192
      8.00533     11.70105      4.85268        -0.053243     -0.006115     -0.043086
     11.20747     11.70105      4.85268         0.053377     -0.006122     -0.043115
      8.00533      8.46592      1.61756        -0.053357     -0.050431     -0.689746
     11.20747      8.46592      1.61756         0.053524     -0.050431     -0.689752
      6.40427      9.70536      6.09212        -0.000618      0.000209      0.403482
      9.60640      9.70536      6.09212         0.000076     -0.000132      0.409921
      6.40427      6.47024      2.85700         0.000066     -0.000030      0.222454
      9.60640      6.47024      2.85700         0.000083     -0.000024      0.227118
      8.00533      7.70968      4.85268        -0.053201      0.005681     -0.043075
     11.20747      7.70968      4.85268         0.053359      0.005675     -0.043061
      8.00533     10.94480      1.61756        -0.053340      0.050308     -0.689751
     11.20747     10.94480      1.61756         0.053505      0.050319     -0.689741
      6.40424      9.70536     10.09978        -0.000138      0.000042      0.035822
      9.60641      9.70538     10.10133         0.000051     -0.000152      0.008266
      6.40428      6.47022      6.83849        -0.000086      0.000073     -0.042919
      9.60640      6.47021      6.83813         0.000172      0.000036      0.000441
      8.00647     11.71053     11.40379         0.009980     -0.000162      0.024628
     11.20633     11.71052     11.40375        -0.009776      0.000069      0.024624
      8.00324      8.46678      8.09855         0.001324     -0.003605      0.015295
     11.20954      8.46677      8.09856        -0.000712     -0.003363      0.015323
      6.40425      9.70539     12.55509         0.000145      0.000048      0.007773
      9.60640      9.70538     12.55790        -0.000015      0.000048      0.018696
      6.40427      6.47024      9.30234        -0.000308     -0.000013      0.000610
      9.60638      6.47020      9.30488         0.007680      0.004716     -0.003496
      8.00645      7.70018     11.40381         0.009753      0.000430      0.024414
     11.20634      7.70018     11.40386        -0.009662      0.000367      0.024643
      8.00324     10.94390      8.09853         0.001827      0.003454      0.015310
     11.20954     10.94389      8.09855        -0.001236      0.004510      0.015347
 -----------------------------------------------------------------------------------
    total drift:                               -0.015830      0.000553      0.209025


--------------------------------------------------------------------------------------------------------



  FREE ENERGIE OF THE ION-ELECTRON SYSTEM (eV)
  ---------------------------------------------------
  free  energy   TOTEN  =     -1230.08094815 eV

  energy  without entropy=    -1229.92064590  energy(sigma->0) =    -1230.00079702
 
 d Force = 0.3138304E-02[ 0.169E-02, 0.459E-02]  d Energy = 0.3927461E-02-0.789E-03
 d Force = 0.2625800E+03[ 0.263E+03, 0.263E+03]  d Ewald  = 0.2625800E+03 0.671E-05


--------------------------------------------------------------------------------------------------------


    POTLOK:  cpu time    0.2550: real time    0.2557


--------------------------------------------------------------------------------------------------------


 stress matrix after NEB project (eV)
    -36.03491      0.00946     -0.00150
      0.00946    -22.72088      0.00172
     -0.00150      0.00172     -4.03369
  FORCES: max atom, RMS     0.043111    0.015494
  FORCE total and by dimension    0.214685    0.043110
  Stress total and by dimension   42.790463   36.034909
 Conjugate gradient step on ions:
 trial-energy change:   -0.003927  1 .order   -0.003138   -0.004591   -0.001686
  (g-gl).g = 0.405E-02      g.g   = 0.428E-02  gl.gl    = 0.830E-02
 g(Force)  = 0.428E-02   g(Stress)= 0.000E+00 ortho     = 0.756E-03
 gamma     =   0.48807
 trial     =   0.98692
 opt step  =   1.18104  (harmonic =   1.55966) maximal distance =0.00468652
 next E    = -1230.081120   (d E  =  -0.00410)


--------------------------------------------------------------------------------------------------------


  
 reached required accuracy - stopping structural energy minimisation
     LOOP+:  cpu time  553.2151: real time  555.5930
    4ORBIT:  cpu time    0.0000: real time    0.0000

 total amount of memory used by VASP MPI-rank0   385137. kBytes
=======================================================================

   base      :      30000. kBytes
   nonlr-proj:      11560. kBytes
   fftplans  :       7662. kBytes
   grid      :      27184. kBytes
   one-center:        622. kBytes
   wavefun   :     308109. kBytes
 
  
  
 General timing and accounting informations for this job:
 ========================================================
  
                  Total CPU time used (sec):     8516.754
                            User time (sec):     8369.952
                          System time (sec):      146.802
                         Elapsed time (sec):     8546.061
  
                   Maximum memory used (kb):      507224.
                   Average memory used (kb):           0.
  
                          Minor page faults:       891638
                          Major page faults:          175
                 Voluntary context switches:         4126
