 vasp.5.4.4.18Apr17-6-g9f103f2a35 (build Feb 25 2019 10:51:38) complex          
  
 executed on             LinuxIFC date 2023.03.15  11:00:54
 running on   40 total cores
 distrk:  each k-point on   40 cores,    1 groups
 distr:  one band on NCORES_PER_BAND=   1 cores,   40 groups


--------------------------------------------------------------------------------------------------------


 INCAR:
 POTCAR:    PAW_PBE Ir 06Sep2000                  
 POTCAR:    PAW_PBE O 08Apr2002                   
 POTCAR:    PAW_PBE Ir 06Sep2000                  
 POTCAR:    PAW_PBE O 08Apr2002                   

 ----------------------------------------------------------------------------- 
|                                                                             |
|           W    W    AA    RRRRR   N    N  II  N    N   GGGG   !!!           |
|           W    W   A  A   R    R  NN   N  II  NN   N  G    G  !!!           |
|           W    W  A    A  R    R  N N  N  II  N N  N  G       !!!           |
|           W WW W  AAAAAA  RRRRR   N  N N  II  N  N N  G  GGG   !            |
|           WW  WW  A    A  R   R   N   NN  II  N   NN  G    G                |
|           W    W  A    A  R    R  N    N  II  N    N   GGGG   !!!           |
|                                                                             |
|      For optimal performance we recommend to set                            |
|        NCORE= 4 - approx SQRT( number of cores)                             |
|      NCORE specifies how many cores store one orbital (NPAR=cpu/NCORE).     |
|      This setting can  greatly improve the performance of VASP for DFT.     |
|      The default,   NCORE=1            might be grossly inefficient         |
|      on modern multi-core architectures or massively parallel machines.     |
|      Do your own testing !!!!                                               |
|      Unfortunately you need to use the default for GW and RPA calculations. |
|      (for HF NCORE is supported but not extensively tested yet)             |
|                                                                             |
 ----------------------------------------------------------------------------- 

 POTCAR:    PAW_PBE Ir 06Sep2000                  
   VRHFIN =Ir: s1d8                                                             
   LEXCH  = PE                                                                  
   EATOM  =   560.1833 eV,   41.1723 Ry                                         
                                                                                
   TITEL  = PAW_PBE Ir 06Sep2000                                                
   LULTRA =        F    use ultrasoft PP ?                                      
   IUNSCR =        1    unscreen: 0-lin 1-nonlin 2-no                           
   RPACOR =    2.250    partial core radius                                     
   POMASS =  192.220; ZVAL   =    9.000    mass and valenz                      
   RCORE  =    2.600    outmost cutoff radius                                   
   RWIGS  =    2.690; RWIGS  =    1.423    wigner-seitz radius (au A)           
   ENMAX  =  210.864; ENMIN  =  158.148 eV                                      
   RCLOC  =    1.857    cutoff for local pot                                    
   LCOR   =        T    correct aug charges                                     
   LPAW   =        T    paw PP                                                  
   EAUG   =  318.962                                                            
   DEXC   =    0.000                                                            
   RMAX   =    2.667    core radius for proj-oper                               
   RAUG   =    1.300    factor for augmentation sphere                          
   RDEP   =    2.748    radius for radial grids                                 
   RDEPT  =    2.300    core radius for aug-charge                              
                                                                                
   Atomic configuration                                                         
   16 entries                                                                   
     n  l   j            E        occ.                                          
     1  0  0.50    -76100.0449   2.0000                                         
     2  0  0.50    -13308.1683   2.0000                                         
     2  1  1.50    -11558.0021   6.0000                                         
     3  0  0.50     -3110.7274   2.0000                                         
     3  1  1.50     -2599.2109   6.0000                                         
     3  2  2.50     -2037.1515  10.0000                                         
     4  0  0.50      -661.6001   2.0000                                         
     4  1  1.50      -493.8981   6.0000                                         
     4  2  2.50      -288.1909  10.0000                                         
     4  3  3.50       -59.5718  14.0000                                         
     5  0  0.50       -95.3879   2.0000                                         
     5  1  1.50       -52.2747   6.0000                                         
     5  2  2.50        -5.4180   8.0000                                         
     6  0  0.50        -5.5479   1.0000                                         
     6  1  1.50        -6.8029   0.0000                                         
     5  3  2.50        -1.3606   0.0000                                         
   Description                                                                  
     l       E           TYP  RCUT    TYP  RCUT                                 
     2     -5.4179967     23  2.600                                             
     2     -6.7785793     23  2.600                                             
     0     -5.5478636     23  2.600                                             
     0      2.2542272     23  2.600                                             
     1     -2.7211652     23  2.600                                             
     1     20.4087390     23  2.600                                             
  local pseudopotential read in
  partial core-charges read in
  partial kinetic energy density read in
  atomic valenz-charges read in
  non local Contribution for L=           2  read in
    real space projection operators read in
  non local Contribution for L=           2  read in
    real space projection operators read in
  non local Contribution for L=           0  read in
    real space projection operators read in
  non local Contribution for L=           0  read in
    real space projection operators read in
  non local Contribution for L=           1  read in
    real space projection operators read in
  non local Contribution for L=           1  read in
    real space projection operators read in
    PAW grid and wavefunctions read in
 
   number of l-projection  operators is LMAX  =           6
   number of lm-projection operators is LMMAX =          18
 
 POTCAR:    PAW_PBE O 08Apr2002                   
   VRHFIN =O: s2p4                                                              
   LEXCH  = PE                                                                  
   EATOM  =   432.3788 eV,   31.7789 Ry                                         
                                                                                
   TITEL  = PAW_PBE O 08Apr2002                                                 
   LULTRA =        F    use ultrasoft PP ?                                      
   IUNSCR =        1    unscreen: 0-lin 1-nonlin 2-no                           
   RPACOR =    1.200    partial core radius                                     
   POMASS =   16.000; ZVAL   =    6.000    mass and valenz                      
   RCORE  =    1.520    outmost cutoff radius                                   
   RWIGS  =    1.550; RWIGS  =    0.820    wigner-seitz radius (au A)           
   ENMAX  =  400.000; ENMIN  =  300.000 eV                                      
   ICORE  =        2    local potential                                         
   LCOR   =        T    correct aug charges                                     
   LPAW   =        T    paw PP                                                  
   EAUG   =  605.392                                                            
   DEXC   =    0.000                                                            
   RMAX   =    1.553    core radius for proj-oper                               
   RAUG   =    1.300    factor for augmentation sphere                          
   RDEP   =    1.550    radius for radial grids                                 
   RDEPT  =    1.329    core radius for aug-charge                              
                                                                                
   Atomic configuration                                                         
    4 entries                                                                   
     n  l   j            E        occ.                                          
     1  0  0.50      -514.6923   2.0000                                         
     2  0  0.50       -23.9615   2.0000                                         
     2  1  0.50        -9.0305   4.0000                                         
     3  2  1.50        -9.5241   0.0000                                         
   Description                                                                  
     l       E           TYP  RCUT    TYP  RCUT                                 
     0    -23.9615318     23  1.200                                             
     0     -9.5240782     23  1.200                                             
     1     -9.0304911     23  1.520                                             
     1      8.1634956     23  1.520                                             
     2     -9.5240782      7  1.500                                             
  local pseudopotential read in
  partial core-charges read in
  partial kinetic energy density read in
  kinetic energy density of atom read in
  atomic valenz-charges read in
  non local Contribution for L=           0  read in
    real space projection operators read in
  non local Contribution for L=           0  read in
    real space projection operators read in
  non local Contribution for L=           1  read in
    real space projection operators read in
  non local Contribution for L=           1  read in
    real space projection operators read in
    PAW grid and wavefunctions read in
 
   number of l-projection  operators is LMAX  =           4
   number of lm-projection operators is LMMAX =           8
 
 POTCAR:    PAW_PBE Ir 06Sep2000                  
   VRHFIN =Ir: s1d8                                                             
   LEXCH  = PE                                                                  
   EATOM  =   560.1833 eV,   41.1723 Ry                                         
                                                                                
   TITEL  = PAW_PBE Ir 06Sep2000                                                
   LULTRA =        F    use ultrasoft PP ?                                      
   IUNSCR =        1    unscreen: 0-lin 1-nonlin 2-no                           
   RPACOR =    2.250    partial core radius                                     
   POMASS =  192.220; ZVAL   =    9.000    mass and valenz                      
   RCORE  =    2.600    outmost cutoff radius                                   
   RWIGS  =    2.690; RWIGS  =    1.423    wigner-seitz radius (au A)           
   ENMAX  =  210.864; ENMIN  =  158.148 eV                                      
   RCLOC  =    1.857    cutoff for local pot                                    
   LCOR   =        T    correct aug charges                                     
   LPAW   =        T    paw PP                                                  
   EAUG   =  318.962                                                            
   DEXC   =    0.000                                                            
   RMAX   =    2.667    core radius for proj-oper                               
   RAUG   =    1.300    factor for augmentation sphere                          
   RDEP   =    2.748    radius for radial grids                                 
   RDEPT  =    2.300    core radius for aug-charge                              
                                                                                
   Atomic configuration                                                         
   16 entries                                                                   
     n  l   j            E        occ.                                          
     1  0  0.50    -76100.0449   2.0000                                         
     2  0  0.50    -13308.1683   2.0000                                         
     2  1  1.50    -11558.0021   6.0000                                         
     3  0  0.50     -3110.7274   2.0000                                         
     3  1  1.50     -2599.2109   6.0000                                         
     3  2  2.50     -2037.1515  10.0000                                         
     4  0  0.50      -661.6001   2.0000                                         
     4  1  1.50      -493.8981   6.0000                                         
     4  2  2.50      -288.1909  10.0000                                         
     4  3  3.50       -59.5718  14.0000                                         
     5  0  0.50       -95.3879   2.0000                                         
     5  1  1.50       -52.2747   6.0000                                         
     5  2  2.50        -5.4180   8.0000                                         
     6  0  0.50        -5.5479   1.0000                                         
     6  1  1.50        -6.8029   0.0000                                         
     5  3  2.50        -1.3606   0.0000                                         
   Description                                                                  
     l       E           TYP  RCUT    TYP  RCUT                                 
     2     -5.4179967     23  2.600                                             
     2     -6.7785793     23  2.600                                             
     0     -5.5478636     23  2.600                                             
     0      2.2542272     23  2.600                                             
     1     -2.7211652     23  2.600                                             
     1     20.4087390     23  2.600                                             
  local pseudopotential read in
  partial core-charges read in
  partial kinetic energy density read in
  atomic valenz-charges read in
  non local Contribution for L=           2  read in
    real space projection operators read in
  non local Contribution for L=           2  read in
    real space projection operators read in
  non local Contribution for L=           0  read in
    real space projection operators read in
  non local Contribution for L=           0  read in
    real space projection operators read in
  non local Contribution for L=           1  read in
    real space projection operators read in
  non local Contribution for L=           1  read in
    real space projection operators read in
    PAW grid and wavefunctions read in
 
   number of l-projection  operators is LMAX  =           6
   number of lm-projection operators is LMMAX =          18
 
 POTCAR:    PAW_PBE O 08Apr2002                   
   VRHFIN =O: s2p4                                                              
   LEXCH  = PE                                                                  
   EATOM  =   432.3788 eV,   31.7789 Ry                                         
                                                                                
   TITEL  = PAW_PBE O 08Apr2002                                                 
   LULTRA =        F    use ultrasoft PP ?                                      
   IUNSCR =        1    unscreen: 0-lin 1-nonlin 2-no                           
   RPACOR =    1.200    partial core radius                                     
   POMASS =   16.000; ZVAL   =    6.000    mass and valenz                      
   RCORE  =    1.520    outmost cutoff radius                                   
   RWIGS  =    1.550; RWIGS  =    0.820    wigner-seitz radius (au A)           
   ENMAX  =  400.000; ENMIN  =  300.000 eV                                      
   ICORE  =        2    local potential                                         
   LCOR   =        T    correct aug charges                                     
   LPAW   =        T    paw PP                                                  
   EAUG   =  605.392                                                            
   DEXC   =    0.000                                                            
   RMAX   =    1.553    core radius for proj-oper                               
   RAUG   =    1.300    factor for augmentation sphere                          
   RDEP   =    1.550    radius for radial grids                                 
   RDEPT  =    1.329    core radius for aug-charge                              
                                                                                
   Atomic configuration                                                         
    4 entries                                                                   
     n  l   j            E        occ.                                          
     1  0  0.50      -514.6923   2.0000                                         
     2  0  0.50       -23.9615   2.0000                                         
     2  1  0.50        -9.0305   4.0000                                         
     3  2  1.50        -9.5241   0.0000                                         
   Description                                                                  
     l       E           TYP  RCUT    TYP  RCUT                                 
     0    -23.9615318     23  1.200                                             
     0     -9.5240782     23  1.200                                             
     1     -9.0304911     23  1.520                                             
     1      8.1634956     23  1.520                                             
     2     -9.5240782      7  1.500                                             
  local pseudopotential read in
  partial core-charges read in
  partial kinetic energy density read in
  kinetic energy density of atom read in
  atomic valenz-charges read in
  non local Contribution for L=           0  read in
    real space projection operators read in
  non local Contribution for L=           0  read in
    real space projection operators read in
  non local Contribution for L=           1  read in
    real space projection operators read in
  non local Contribution for L=           1  read in
    real space projection operators read in
    PAW grid and wavefunctions read in
 
   number of l-projection  operators is LMAX  =           4
   number of lm-projection operators is LMMAX =           8
 
 Optimization of the real space projectors (new method)

 maximal supplied QI-value         = 14.36
 optimisation between [QCUT,QGAM] = [ 11.35, 22.84] = [ 36.05,146.02] Ry 
 Optimized for a Real-space Cutoff    1.52 Angstroem

   l    n(q)    QCUT    max X(q) W(low)/X(q) W(high)/X(q)  e(spline) 
   2      9    11.346   134.116    0.47E-03    0.13E-03    0.92E-06
   2      9    11.346   130.192    0.47E-03    0.13E-03    0.92E-06
   0     10    11.346    60.310    0.74E-04    0.13E-03    0.69E-06
   0     10    11.346    39.218    0.68E-04    0.12E-03    0.65E-06
   1     10    11.346    18.439    0.15E-03    0.34E-04    0.20E-06
   1     10    11.346    12.760    0.12E-03    0.31E-04    0.16E-06
 Optimization of the real space projectors (new method)

 maximal supplied QI-value         = 24.76
 optimisation between [QCUT,QGAM] = [ 11.39, 22.77] = [ 36.31,145.25] Ry 
 Optimized for a Real-space Cutoff    1.00 Angstroem

   l    n(q)    QCUT    max X(q) W(low)/X(q) W(high)/X(q)  e(spline) 
   0      7    11.387    20.381    0.39E-03    0.13E-02    0.15E-06
   0      7    11.387    15.268    0.42E-03    0.14E-02    0.17E-06
   1      6    11.387     5.964    0.41E-03    0.11E-02    0.17E-06
   1      6    11.387     5.382    0.39E-03    0.87E-03    0.15E-06
 Optimization of the real space projectors (new method)

 maximal supplied QI-value         = 14.36
 optimisation between [QCUT,QGAM] = [ 11.35, 22.84] = [ 36.05,146.02] Ry 
 Optimized for a Real-space Cutoff    1.52 Angstroem

   l    n(q)    QCUT    max X(q) W(low)/X(q) W(high)/X(q)  e(spline) 
   2      9    11.346   134.116    0.47E-03    0.13E-03    0.92E-06
   2      9    11.346   130.192    0.47E-03    0.13E-03    0.92E-06
   0     10    11.346    60.310    0.74E-04    0.13E-03    0.69E-06
   0     10    11.346    39.218    0.68E-04    0.12E-03    0.65E-06
   1     10    11.346    18.439    0.15E-03    0.34E-04    0.20E-06
   1     10    11.346    12.760    0.12E-03    0.31E-04    0.16E-06
 Optimization of the real space projectors (new method)

 maximal supplied QI-value         = 24.76
 optimisation between [QCUT,QGAM] = [ 11.39, 22.77] = [ 36.31,145.25] Ry 
 Optimized for a Real-space Cutoff    1.00 Angstroem

   l    n(q)    QCUT    max X(q) W(low)/X(q) W(high)/X(q)  e(spline) 
   0      7    11.387    20.381    0.39E-03    0.13E-02    0.15E-06
   0      7    11.387    15.268    0.42E-03    0.14E-02    0.17E-06
   1      6    11.387     5.964    0.41E-03    0.11E-02    0.17E-06
   1      6    11.387     5.382    0.39E-03    0.87E-03    0.15E-06

 ----------------------------------------------------------------------------- 
|                                                                             |
|  ADVICE TO THIS USER RUNNING 'VASP/VAMP'   (HEAR YOUR MASTER'S VOICE ...):  |
|                                                                             |
|      You enforced a specific xc-type in the INCAR file,                     |
|      a different type was found on the POTCAR file                          |
|          I HOPE YOU KNOW, WHAT YOU ARE  DOING                               |
|                                                                             |
 ----------------------------------------------------------------------------- 

  PAW_PBE Ir 06Sep2000                  :
 energy of atom  1       EATOM= -560.1833
 kinetic energy error for atom=    0.0018 (will be added to EATOM!!)
  PAW_PBE O 08Apr2002                   :
 energy of atom  2       EATOM= -432.3788
 kinetic energy error for atom=    0.0224 (will be added to EATOM!!)
  PAW_PBE Ir 06Sep2000                  :
 energy of atom  3       EATOM= -560.1833
 kinetic energy error for atom=    0.0018 (will be added to EATOM!!)
  PAW_PBE O 08Apr2002                   :
 energy of atom  4       EATOM= -432.3788
 kinetic energy error for atom=    0.0224 (will be added to EATOM!!)
 
 
 POSCAR: Ir  O Ir  O                             
  positions in cartesian coordinates
  No initial velocities read in
 exchange correlation table for  LEXCH =        9
   RHO(1)=    0.500       N(1)  =     2000
   RHO(2)=  100.500       N(2)  =     4000

 VTST: version 3.2, (02/03/18)

 CHAIN: initializing optimizer
 
 OPT: Using VASP Dynamics algorithm
 CHAIN: Read ICHAIN            0
 
 POSCAR: Ir  O Ir  O                             
  positions in cartesian coordinates
  No initial velocities read in
 


--------------------------------------------------------------------------------------------------------


 ion  position               nearest neighbor table
   1  0.125  0.500  0.188-  21 2.00  29 2.00  17 2.02  25 2.02  26 2.02  18 2.02   2 3.20  50 3.20

   2  0.375  0.500  0.188-  22 2.00  30 2.00  26 2.02  18 2.02  65 2.02  73 2.02   1 3.20  49 3.20

   3  0.125  0.000  0.062-  23 2.00  31 2.00  19 2.02  27 2.02  28 2.02  20 2.02   4 3.20  52 3.20

   4  0.375  0.000  0.062-  24 2.00  32 2.00  28 2.02  20 2.02  67 2.02  75 2.02   3 3.20  51 3.20

   5  0.000  0.500  0.062-  17 2.00  23 2.02  31 2.02  72 2.02  80 2.02   6 3.20  54 3.20
   6  0.250  0.500  0.062-  18 2.00  23 2.02  24 2.02  31 2.02  32 2.02   5 3.20  53 3.20
   7  0.000  0.000  0.188-  35 1.99  27 2.00  29 2.02  21 2.02  70 2.02  78 2.02   8 3.20  56 3.20

   8  0.250  0.000  0.188-  36 1.98  28 2.00  21 2.02  29 2.02  30 2.02  22 2.02   7 3.20  55 3.20

   9  0.125  0.500  0.439-  42 1.98  41 2.00  37 2.01  45 2.01  33 2.03  34 2.04  58 3.19  10 3.19

  10  0.375  0.500  0.439-  42 1.98  89 2.00  38 2.01  46 2.01  81 2.03  34 2.04  57 3.19   9 3.19

  11  0.125  0.000  0.312-  39 1.99  47 1.99  43 2.02  44 2.02  35 2.02  36 2.03  12 3.21  60 3.22

  12  0.375  0.000  0.312-  40 1.99  48 1.99  90 2.02  44 2.02  83 2.02  36 2.03  11 3.21  59 3.22

  13  1.000  0.500  0.313-  33 1.97  25 2.00  88 2.02  95 2.02  39 2.03  47 2.03  62 3.20  14 3.21

  14  0.250  0.500  0.313-  34 1.99  26 2.00  40 2.03  48 2.03  47 2.03  39 2.03  61 3.21  13 3.21

  15  0.999  0.000  0.435-  43 1.96  86 2.02  93 2.02  37 2.03  45 2.03  64 3.20  16 3.21
  16  0.250  0.000  0.435-  44 1.96  37 2.02  45 2.02  46 2.02  38 2.02  63 3.21  15 3.21
  17  0.000  0.500  0.140-   5 2.00   1 2.02  50 2.02
  18  0.250  0.500  0.140-   6 2.00   2 2.02   1 2.02
  19  0.000  0.000  0.015-   3 2.02  52 2.02
  20  0.250  0.000  0.015-   3 2.02   4 2.02
  21  0.125  0.808  0.188-   1 2.00   7 2.02   8 2.02
  22  0.375  0.808  0.188-   2 2.00   8 2.02  55 2.02
  23  0.125  0.308  0.062-   3 2.00   5 2.02   6 2.02
  24  0.375  0.308  0.062-   4 2.00   6 2.02  53 2.02
  25  0.000  0.500  0.235-  13 2.00   1 2.02  50 2.02
  26  0.250  0.500  0.235-  14 2.00   2 2.02   1 2.02
  27  0.000  0.000  0.110-   7 2.00   3 2.02  52 2.02
  28  0.250  0.000  0.110-   8 2.00   4 2.02   3 2.02
  29  0.125  0.192  0.188-   1 2.00   7 2.02   8 2.02
  30  0.375  0.192  0.188-   2 2.00   8 2.02  55 2.02
  31  0.125  0.692  0.062-   3 2.00   5 2.02   6 2.02
  32  0.375  0.692  0.062-   4 2.00   6 2.02  53 2.02
  33  0.004  0.500  0.389-  13 1.97   9 2.03  58 2.08
  34  0.250  0.500  0.390-  14 1.99  10 2.04   9 2.04
  35  0.999  0.000  0.265-   7 1.99  11 2.02  60 2.04
  36  0.250  0.000  0.264-   8 1.98  11 2.03  12 2.03
  37  0.125  0.810  0.441-   9 2.01  16 2.02  15 2.03
  38  0.375  0.810  0.441-  10 2.01  16 2.02  63 2.03
  39  0.125  0.308  0.312-  11 1.99  14 2.03  13 2.03
  40  0.375  0.308  0.312-  12 1.99  14 2.03  61 2.03
  41  0.999  0.500  0.484-  58 1.97   9 2.00
  42  0.250  0.500  0.484-   9 1.98  10 1.98
  43  1.000  0.000  0.360-  15 1.96  60 2.02  11 2.02
  44  0.250  0.000  0.359-  16 1.96  11 2.02  12 2.02
  45  0.125  0.190  0.441-   9 2.01  16 2.02  15 2.03
  46  0.375  0.190  0.441-  10 2.01  16 2.02  63 2.03
  47  0.125  0.692  0.312-  11 1.99  14 2.03  13 2.03
  48  0.375  0.692  0.312-  12 1.99  14 2.03  61 2.03
  49  0.625  0.500  0.188-  69 2.00  77 2.00  65 2.02  73 2.02  74 2.02  66 2.02   2 3.20  50 3.20

  50  0.875  0.500  0.188-  70 2.00  78 2.00  66 2.02  17 2.02  74 2.02  25 2.02   1 3.20  49 3.20

  51  0.625  0.000  0.062-  71 2.00  79 2.00  67 2.02  75 2.02  76 2.02  68 2.02   4 3.20  52 3.20

  52  0.875  0.000  0.062-  72 2.00  80 2.00  68 2.02  19 2.02  76 2.02  27 2.02   3 3.20  51 3.20

  53  0.500  0.500  0.062-  65 2.00  32 2.02  24 2.02  71 2.02  79 2.02  54 3.20   6 3.20
  54  0.750  0.500  0.062-  66 2.00  71 2.02  72 2.02  79 2.02  80 2.02  53 3.20   5 3.20
  55  0.500  0.000  0.188-  83 1.99  75 2.00  69 2.02  22 2.02  77 2.02  30 2.02   8 3.20  56 3.20

  56  0.750  0.000  0.188-  76 2.00  84 2.00  69 2.02  77 2.02  78 2.02  70 2.02   7 3.20  55 3.20

  57  0.624  0.500  0.438-  89 1.97  85 1.99  92 1.99  82 2.02  81 2.07  10 3.19  58 3.23
  58  0.876  0.500  0.438-  41 1.97  86 1.99  93 1.99  82 2.02  33 2.08   9 3.19  57 3.23
  59  0.627  0.000  0.313-  87 1.99  94 1.99  84 2.02  90 2.02  91 2.03  83 2.04  60 3.16  12 3.22

  60  0.874  0.000  0.313-  88 1.99  95 1.99  84 2.02  43 2.02  91 2.03  35 2.04  59 3.16  11 3.22

  61  0.500  0.500  0.313-  81 1.97  73 2.00  87 2.02  94 2.02  40 2.03  48 2.03  62 3.20  14 3.21

  62  0.750  0.500  0.314-  82 2.02  74 2.02  88 2.02  95 2.02  94 2.02  87 2.02  13 3.20  61 3.20

  63  0.501  0.000  0.435-  90 1.96  85 2.02  92 2.02  46 2.03  38 2.03  64 3.20  16 3.21
  64  0.750  0.000  0.444-  96 1.80  93 2.03  86 2.03  85 2.03  92 2.03  91 2.12  63 3.20  15 3.20

  65  0.500  0.500  0.140-  53 2.00  49 2.02   2 2.02
  66  0.750  0.500  0.140-  54 2.00  50 2.02  49 2.02
  67  0.500  0.000  0.015-   4 2.02  51 2.02
  68  0.750  0.000  0.015-  51 2.02  52 2.02
  69  0.625  0.808  0.188-  49 2.00  55 2.02  56 2.02
  70  0.875  0.808  0.188-  50 2.00   7 2.02  56 2.02
  71  0.625  0.308  0.062-  51 2.00  53 2.02  54 2.02
  72  0.875  0.308  0.062-  52 2.00   5 2.02  54 2.02
  73  0.500  0.500  0.235-  61 2.00  49 2.02   2 2.02
  74  0.750  0.500  0.235-  62 2.02  50 2.02  49 2.02
  75  0.500  0.000  0.110-  55 2.00  51 2.02   4 2.02
  76  0.750  0.000  0.110-  56 2.00  52 2.02  51 2.02
  77  0.625  0.192  0.188-  49 2.00  55 2.02  56 2.02
  78  0.875  0.192  0.188-  50 2.00   7 2.02  56 2.02
  79  0.625  0.692  0.062-  51 2.00  53 2.02  54 2.02
  80  0.875  0.692  0.062-  52 2.00   5 2.02  54 2.02
  81  0.496  0.500  0.389-  61 1.97  10 2.03  57 2.07
  82  0.750  0.500  0.391-  62 2.02  57 2.02  58 2.02
  83  0.501  0.000  0.264-  55 1.99  12 2.02  59 2.04
  84  0.750  0.000  0.265-  56 2.00  59 2.02  60 2.02
  85  0.625  0.808  0.440-  57 1.99  63 2.02  64 2.03
  86  0.875  0.808  0.440-  58 1.99  15 2.02  64 2.03
  87  0.625  0.308  0.313-  59 1.99  61 2.02  62 2.02
  88  0.875  0.308  0.314-  60 1.99  13 2.02  62 2.02
  89  0.501  0.500  0.484-  57 1.97  10 2.00
  90  0.500  0.000  0.360-  63 1.96  12 2.02  59 2.02
  91  0.750  0.000  0.362-  60 2.03  59 2.03  64 2.12
  92  0.625  0.192  0.440-  57 1.99  63 2.02  64 2.03
  93  0.875  0.192  0.440-  58 1.99  15 2.02  64 2.03
  94  0.625  0.692  0.313-  59 1.99  61 2.02  62 2.02
  95  0.875  0.692  0.314-  60 1.99  13 2.02  62 2.02
  96  0.750  0.000  0.514-  64 1.80
 
  LATTYP: Found a simple orthorhombic cell.
 ALAT       =     6.4702430000
 B/A-ratio  =     1.9796060210
 C/A-ratio  =     4.0000000000
  
  Lattice vectors:
  
 A1 = (   0.0000000000,  -6.4702430000,   0.0000000000)
 A2 = ( -12.8085320000,   0.0000000000,   0.0000000000)
 A3 = (   0.0000000000,   0.0000000000, -25.8809720000)


Analysis of symmetry for initial positions (statically):
=====================================================================
 Subroutine PRICEL returns:
 Original cell was already a primitive cell.
 

 Routine SETGRP: Setting up the symmetry group for a 
 simple orthorhombic supercell.


 Subroutine GETGRP returns: Found  2 space group operations
 (whereof  2 operations were pure point group operations)
 out of a pool of  8 trial point group operations.


The static configuration has the point symmetry C_1h.


Analysis of symmetry for dynamics (positions and initial velocities):
=====================================================================
 Subroutine PRICEL returns:
 Original cell was already a primitive cell.
 

 Routine SETGRP: Setting up the symmetry group for a 
 simple orthorhombic supercell.


 Subroutine GETGRP returns: Found  2 space group operations
 (whereof  2 operations were pure point group operations)
 out of a pool of  8 trial point group operations.


The dynamic configuration has the point symmetry C_1h.


Analysis of constrained symmetry for selective dynamics:
=====================================================================
 Subroutine PRICEL returns:
 Original cell was already a primitive cell.
 

 Routine SETGRP: Setting up the symmetry group for a 
 simple orthorhombic supercell.


 Subroutine GETGRP returns: Found  2 space group operations
 (whereof  2 operations were pure point group operations)
 out of a pool of  8 trial point group operations.


The constrained configuration has the point symmetry C_1h.


Analysis of structural, dynamic, and magnetic symmetry:
=====================================================================
 Subroutine PRICEL returns:
 Original cell was already a primitive cell.
 

 Routine SETGRP: Setting up the symmetry group for a 
 simple orthorhombic supercell.


 Subroutine GETGRP returns: Found  2 space group operations
 (whereof  2 operations were pure point group operations)
 out of a pool of  8 trial point group operations.


The magnetic configuration has the point symmetry C_1h.


 Subroutine INISYM returns: Found  2 space group operations
 (whereof  2 operations are pure point group operations),
 and found     1 'primitive' translations

 
 
 KPOINTS: Automatic mesh                          

Automatic generation of k-mesh.
Space group operators:
 irot       det(A)        alpha          n_x          n_y          n_z        tau_x        tau_y        tau_z
    1     1.000000     0.000001     1.000000     0.000000     0.000000     0.000000     0.000000     0.000000
    2    -1.000000   180.000000     0.000000     1.000000     0.000000     0.000000     0.000000     0.000000
 
 Subroutine IBZKPT returns following result:
 ===========================================
 
 Found      4 irreducible k-points:
 
 Following reciprocal coordinates:
            Coordinates               Weight
  0.000000  0.000000  0.000000      1.000000
  0.333333  0.000000  0.000000      2.000000
  0.000000  0.333333  0.000000      2.000000
  0.333333  0.333333  0.000000      4.000000
 
 Following cartesian coordinates:
            Coordinates               Weight
  0.000000  0.000000  0.000000      1.000000
  0.026024  0.000000  0.000000      2.000000
  0.000000  0.051518  0.000000      2.000000
  0.026024  0.051518  0.000000      4.000000
 
 
 Subroutine IBZKPT_HF returns following result:
 ==============================================
 
 Found      9 k-points in 1st BZ
 the following      9 k-points will be used (e.g. in the exchange kernel)
 Following reciprocal coordinates:   # in IRBZ
  0.000000  0.000000  0.000000    0.11111111   1 t-inv F
  0.333333  0.000000  0.000000    0.11111111   2 t-inv F
  0.000000  0.333333  0.000000    0.11111111   3 t-inv F
  0.333333  0.333333  0.000000    0.11111111   4 t-inv F
  0.000000 -0.333333  0.000000    0.11111111   3 t-inv F
  0.333333 -0.333333  0.000000    0.11111111   4 t-inv F
 -0.333333  0.000000  0.000000    0.11111111   2 t-inv T
 -0.333333 -0.333333  0.000000    0.11111111   4 t-inv T
 -0.333333  0.333333  0.000000    0.11111111   4 t-inv T


--------------------------------------------------------------------------------------------------------




 Dimension of arrays:
   k-points           NKPTS =      4   k-points in BZ     NKDIM =      4   number of bands    NBANDS=    440
   number of dos      NEDOS =    301   number of ions     NIONS =     96
   non local maximal  LDIM  =      6   non local SUM 2l+1 LMDIM =     18
   total plane-waves  NPLWV = 362880
   max r-space proj   IRMAX =   2532   max aug-charges    IRDMAX=  12432
   dimension x,y,z NGX =    70 NGY =   36 NGZ =  144
   dimension x,y,z NGXF=   140 NGYF=   72 NGZF=  288
   support grid    NGXF=   140 NGYF=   72 NGZF=  288
   ions per type =              16  32  16  32
   NGX,Y,Z   is equivalent  to a cutoff of   9.09,  9.25,  9.25 a.u.
   NGXF,Y,Z  is equivalent  to a cutoff of  18.17, 18.50, 18.50 a.u.

 SYSTEM =  unknown system                          
 POSCAR =  Ir  O Ir  O                             

 Startparameter for this run:
   NWRITE =      2    write-flag & timer
   PREC   = normal    normal or accurate (medium, high low for compatibility)
   ISTART =      0    job   : 0-new  1-cont  2-samecut
   ICHARG =      2    charge: 1-file 2-atom 10-const
   ISPIN  =      2    spin polarized calculation?
   LNONCOLLINEAR =      F non collinear calculations
   LSORBIT =      F    spin-orbit coupling
   INIWAV =      1    electr: 0-lowe 1-rand  2-diag
   LASPH  =      F    aspherical Exc in radial PAW
   METAGGA=      F    non-selfconsistent MetaGGA calc.

 Electronic Relaxation 1
   ENCUT  =  500.0 eV  36.75 Ry    6.06 a.u.  23.35 11.80 47.19*2*pi/ulx,y,z
   ENINI  =  500.0     initial cutoff
   ENAUG  =  605.4 eV  augmentation charge cutoff
   NELM   =     60;   NELMIN=  4; NELMDL= -5     # of ELM steps 
   EDIFF  = 0.1E-05   stopping-criterion for ELM
   LREAL  =      T    real-space projection
   NLSPLINE    = F    spline interpolate recip. space projectors
   LCOMPAT=      F    compatible to vasp.4.4
   GGA_COMPAT  = T    GGA compatible to vasp.4.4-vasp.4.6
   LMAXPAW     = -100 max onsite density
   LMAXMIX     =    2 max onsite mixed and CHGCAR
   VOSKOWN=      0    Vosko Wilk Nusair interpolation
   ROPT   =   -0.00050  -0.00050  -0.00050  -0.00050
 Ionic relaxation
   EDIFFG = -.5E-01   stopping-criterion for IOM
   NSW    =   1189    number of steps for IOM
   NBLOCK =      1;   KBLOCK =   1189    inner block; outer block 
   IBRION =      5    ionic relax: 0-MD 1-quasi-New 2-CG
   NFREE  =      2    steps in history (QN), initial steepest desc. (CG)
   ISIF   =      2    stress and relaxation
   IWAVPR =     11    prediction:  0-non 1-charg 2-wave 3-comb
   ISYM   =      2    0-nonsym 1-usesym 2-fastsym
   LCORR  =      T    Harris-Foulkes like correction to forces

   POTIM  = 0.5000    time-step for ionic-motion
   TEIN   =    0.0    initial temperature
   TEBEG  =    0.0;   TEEND  =   0.0 temperature during run
   SMASS  =  -3.00    Nose mass-parameter (am)
   estimated Nose-frequenzy (Omega)   =  0.10E-29 period in steps =****** mass=  -0.375E-26a.u.
   SCALEE = 1.0000    scale energy and forces
   NPACO  =    256;   APACO  = 16.0  distance and # of slots for P.C.
   PSTRESS=    0.0 pullay stress

  Mass of Ions in am
   POMASS = 192.22 16.00192.22 16.00
  Ionic Valenz
   ZVAL   =   9.00  6.00  9.00  6.00
  Atomic Wigner-Seitz radii
   RWIGS  =  -1.00 -1.00 -1.00 -1.00
  virtual crystal weights 
   VCA    =   1.00  1.00  1.00  1.00
   NELECT =     672.0000    total number of electrons
   NUPDOWN=      -1.0000    fix difference up-down

 DOS related values:
   EMIN   =  10.00;   EMAX   =-10.00  energy-range for DOS
   EFERMI =   0.00
   ISMEAR =     0;   SIGMA  =   0.05  broadening in eV -4-tet -1-fermi 0-gaus

 Electronic relaxation 2 (details)
   IALGO  =     68    algorithm
   LDIAG  =      T    sub-space diagonalisation (order eigenvalues)
   LSUBROT=      F    optimize rotation matrix (better conditioning)
   TURBO    =      0    0=normal 1=particle mesh
   IRESTART =      0    0=no restart 2=restart with 2 vectors
   NREBOOT  =      0    no. of reboots
   NMIN     =      0    reboot dimension
   EREF     =   0.00    reference energy to select bands
   IMIX   =      4    mixing-type and parameters
     AMIX     =   0.40;   BMIX     =  1.00
     AMIX_MAG =   1.60;   BMIX_MAG =  1.00
     AMIN     =   0.10
     WC   =   100.;   INIMIX=   1;  MIXPRE=   1;  MAXMIX=  60

 Intra band minimization:
   WEIMIN = 0.0010     energy-eigenvalue tresh-hold
   EBREAK =  0.57E-09  absolut break condition
   DEPER  =   0.30     relativ break condition  

   TIME   =   0.40     timestep for ELM

  volume/ion in A,a.u.               =      22.34       150.77
  Fermi-wavevector in a.u.,A,eV,Ry     =   1.111897  2.101180 16.821075  1.236314
  Thomas-Fermi vector in A             =   2.248465
 
 Write flags
   LWAVE        =      F    write WAVECAR
   LDOWNSAMPLE  =      F    k-point downsampling of WAVECAR
   LCHARG       =      F    write CHGCAR
   LVTOT        =      F    write LOCPOT, total local potential
   LVHAR        =      T    write LOCPOT, Hartree potential only
   LELF         =      F    write electronic localiz. function (ELF)
   LORBIT       =      0    0 simple, 1 ext, 2 COOP (PROOUT), +10 PAW based schemes


 Dipole corrections
   LMONO  =      F    monopole corrections only (constant potential shift)
   LDIPOL =      F    correct potential (dipole corrections)
   IDIPOL =      0    1-x, 2-y, 3-z, 4-all directions 
   EPSILON=  1.0000000 bulk dielectric constant

 Exchange correlation treatment:
   GGA     =    RP    GGA type
   LEXCH   =     9    internal setting for exchange type
   VOSKOWN=      0    Vosko Wilk Nusair interpolation
   LHFCALC =     F    Hartree Fock is set to
   LHFONE  =     F    Hartree Fock one center treatment
   AEXX    =    0.0000 exact exchange contribution

 Linear response parameters
   LEPSILON=     F    determine dielectric tensor
   LRPA    =     F    only Hartree local field effects (RPA)
   LNABLA  =     F    use nabla operator in PAW spheres
   LVEL    =     F    velocity operator in full k-point grid
   LINTERFAST=   F  fast interpolation
   KINTER  =     0    interpolate to denser k-point grid
   CSHIFT  =0.1000    complex shift for real part using Kramers Kronig
   OMEGAMAX=  -1.0    maximum frequency
   DEG_THRESHOLD= 0.2000000E-02 threshold for treating states as degnerate
   RTIME   =   -0.100 relaxation time in fs
  (WPLASMAI=    0.000 imaginary part of plasma frequency in eV, 0.658/RTIME)
   DFIELD  = 0.0000000 0.0000000 0.0000000 field for delta impulse in time
 
 Orbital magnetization related:
   ORBITALMAG=     F  switch on orbital magnetization
   LCHIMAG   =     F  perturbation theory with respect to B field
   DQ        =  0.001000  dq finite difference perturbation B field
   LLRAUG    =     F  two centre corrections for induced B field



--------------------------------------------------------------------------------------------------------


 finite differences
   using selective dynamics as specified on POSCAR
   WARNING: If single coordinates had been selected the selection of coordinates
            is made according to the corresponding   d i r e c t   coordinates!
            Don't support selection of single cartesian coordinates -- sorry ...
  !
 charge density and potential will be updated during run
 spin polarized calculation
 RMM-DIIS sequential band-by-band and
  variant of blocked Davidson during initial phase
 perform sub-space diagonalisation
    before iterative eigenvector-optimisation
 modified Broyden-mixing scheme, WC =      100.0
 initial mixing is a Kerker type mixing with AMIX =  0.4000 and BMIX =      1.0000
 Hartree-type preconditioning will be used
 using additional bands          104
 real space projection scheme for non local part
 use partial core corrections
 calculate Harris-corrections to forces 
   (improved forces if not selfconsistent)
 use gradient corrections 
 use of overlap-Matrix (Vanderbilt PP)
 Gauss-broadening in eV      SIGMA  =   0.05


--------------------------------------------------------------------------------------------------------


  energy-cutoff  :      500.00
  volume of cell :     2144.87
      direct lattice vectors                 reciprocal lattice vectors
    12.808532000  0.000000000  0.000000000     0.078072959  0.000000000  0.000000000
     0.000000000  6.470243000  0.000000000     0.000000000  0.154553701  0.000000000
     0.000000000  0.000000000 25.880972000     0.000000000  0.000000000  0.038638425

  length of vectors
    12.808532000  6.470243000 25.880972000     0.078072959  0.154553701  0.038638425


 
 k-points in units of 2pi/SCALE and weight: Automatic mesh                          
   0.00000000  0.00000000  0.00000000       0.111
   0.02602432  0.00000000  0.00000000       0.222
   0.00000000  0.05151790  0.00000000       0.222
   0.02602432  0.05151790  0.00000000       0.444
 
 k-points in reciprocal lattice and weights: Automatic mesh                          
   0.00000000  0.00000000  0.00000000       0.111
   0.33333333  0.00000000  0.00000000       0.222
   0.00000000  0.33333333  0.00000000       0.222
   0.33333333  0.33333333  0.00000000       0.444
 
 position of ions in fractional coordinates (direct lattice) 
   0.12500000  0.50000000  0.18750000
   0.37500000  0.50000000  0.18750000
   0.12500000  0.00000000  0.06250000
   0.37500000  0.00000000  0.06250000
   0.00000000  0.50000000  0.06250000
   0.25000000  0.50000000  0.06250000
   0.00000000  0.00000000  0.18750000
   0.25000000  0.00000000  0.18750000
   0.12531921  0.50000000  0.43886486
   0.37472765  0.50000000  0.43885523
   0.12473297  0.00000000  0.31196845
   0.37533098  0.00000000  0.31195308
   0.99969257  0.50000000  0.31283605
   0.25005816  0.50000000  0.31274164
   0.99942827  0.00000000  0.43529955
   0.24999362  0.00000000  0.43512536
   0.00000000  0.50000000  0.13961000
   0.25000000  0.50000000  0.13961000
   0.00000000  0.00000000  0.01461000
   0.25000000  0.00000000  0.01461000
   0.12500000  0.80844000  0.18750000
   0.37500000  0.80844000  0.18750000
   0.12500000  0.30844000  0.06250000
   0.37500000  0.30844000  0.06250000
   0.00000000  0.50000000  0.23539000
   0.25000000  0.50000000  0.23539000
   0.00000000  0.00000000  0.11039000
   0.25000000  0.00000000  0.11039000
   0.12500000  0.19156000  0.18750000
   0.37500000  0.19156000  0.18750000
   0.12500000  0.69156000  0.06250000
   0.37500000  0.69156000  0.06250000
   0.00365434  0.50000000  0.38875789
   0.25008331  0.50000000  0.38974907
   0.99916480  0.00000000  0.26452736
   0.25001946  0.00000000  0.26415859
   0.12542366  0.81033187  0.44076053
   0.37458125  0.81029734  0.44075811
   0.12487660  0.30820979  0.31214640
   0.37521177  0.30820969  0.31210120
   0.99922598  0.50000000  0.48419093
   0.24999604  0.50000000  0.48435398
   0.99996859  0.00000000  0.35975577
   0.24999985  0.00000000  0.35948346
   0.12542366  0.18966813  0.44076053
   0.37458125  0.18970266  0.44075811
   0.12487660  0.69179021  0.31214640
   0.37521177  0.69179031  0.31210120
   0.62500000  0.50000000  0.18750000
   0.87500000  0.50000000  0.18750000
   0.62500000  0.00000000  0.06250000
   0.87500000  0.00000000  0.06250000
   0.50000000  0.50000000  0.06250000
   0.75000000  0.50000000  0.06250000
   0.50000000  0.00000000  0.18750000
   0.75000000  0.00000000  0.18750000
   0.62390038  0.50000000  0.43818539
   0.87614238  0.50000000  0.43825813
   0.62650267  0.00000000  0.31302582
   0.87356879  0.00000000  0.31305226
   0.50038159  0.50000000  0.31283411
   0.75004161  0.50000000  0.31351590
   0.50050042  0.00000000  0.43525891
   0.74992191  0.00000000  0.44392000
   0.50000000  0.50000000  0.13961000
   0.75000000  0.50000000  0.13961000
   0.50000000  0.00000000  0.01461000
   0.75000000  0.00000000  0.01461000
   0.62500000  0.80844000  0.18750000
   0.87500000  0.80844000  0.18750000
   0.62500000  0.30844000  0.06250000
   0.87500000  0.30844000  0.06250000
   0.50000000  0.50000000  0.23539000
   0.75000000  0.50000000  0.23539000
   0.50000000  0.00000000  0.11039000
   0.75000000  0.00000000  0.11039000
   0.62500000  0.19156000  0.18750000
   0.87500000  0.19156000  0.18750000
   0.62500000  0.69156000  0.06250000
   0.87500000  0.69156000  0.06250000
   0.49639853  0.50000000  0.38875381
   0.75003349  0.50000000  0.39142287
   0.50086851  0.00000000  0.26449419
   0.75004483  0.00000000  0.26461474
   0.62458975  0.80769172  0.44037467
   0.87526081  0.80778233  0.44047447
   0.62519604  0.30809186  0.31347246
   0.87487703  0.30811135  0.31350485
   0.50082551  0.50000000  0.48412180
   0.50004493  0.00000000  0.35971091
   0.75002439  0.00000000  0.36215920
   0.62458975  0.19230828  0.44037467
   0.87526081  0.19221767  0.44047447
   0.62519604  0.69190814  0.31347246
   0.87487703  0.69188865  0.31350485
   0.74963034  0.00000000  0.51357952
 
 position of ions in cartesian coordinates  (Angst):
   1.60106650  3.23512150  4.85268225
   4.80319950  3.23512150  4.85268225
   1.60106650  0.00000000  1.61756075
   4.80319950  0.00000000  1.61756075
   0.00000000  3.23512150  1.61756075
   3.20213300  3.23512150  1.61756075
   0.00000000  0.00000000  4.85268225
   3.20213300  0.00000000  4.85268225
   1.60515516  3.23512150 11.35824912
   4.79971104  3.23512150 11.35800000
   1.59764628  0.00000000  8.07404677
   4.80743886  0.00000000  8.07364889
  12.80459426  3.23512150  8.09650100
   3.20287799  3.23512150  8.09405775
  12.80120892  0.00000000 11.26597536
   3.20205123  0.00000000 11.26146730
   0.00000000  3.23512150  3.61324250
   3.20213300  3.23512150  3.61324250
   0.00000000  0.00000000  0.37812100
   3.20213300  0.00000000  0.37812100
   1.60106650  5.23080325  4.85268225
   4.80319950  5.23080325  4.85268225
   1.60106650  1.99568175  1.61756075
   4.80319950  1.99568175  1.61756075
   0.00000000  3.23512150  6.09212200
   3.20213300  3.23512150  6.09212200
   0.00000000  0.00000000  2.85700050
   3.20213300  0.00000000  2.85700050
   1.60106650  1.23943975  4.85268225
   4.80319950  1.23943975  4.85268225
   1.60106650  4.47456125  1.61756075
   4.80319950  4.47456125  1.61756075
   0.04680673  3.23512150 10.06143212
   3.20320010  3.23512150 10.08708467
  12.79783435  0.00000000  6.84622521
   3.20238229  0.00000000  6.83668106
   1.60649296  5.24304411 11.40731093
   4.79783588  5.24282070 11.40724825
   1.59948590  1.99419220  8.07865224
   4.80591199  1.99419156  8.07748248
  12.79861791  3.23512150 12.53133196
   3.20208225  3.23512150 12.53555174
  12.80812971  0.00000000  9.31082908
   3.20213107  0.00000000  9.30378139
   1.60649296  1.22719889 11.40731093
   4.79783588  1.22742230 11.40724825
   1.59948590  4.47605080  8.07865224
   4.80591199  4.47605144  8.07748248
   8.00533250  3.23512150  4.85268225
  11.20746550  3.23512150  4.85268225
   8.00533250  0.00000000  1.61756075
  11.20746550  0.00000000  1.61756075
   6.40426600  3.23512150  1.61756075
   9.60639900  3.23512150  1.61756075
   6.40426600  0.00000000  4.85268225
   9.60639900  0.00000000  4.85268225
   7.99124802  3.23512150 11.34066369
  11.22209772  3.23512150 11.34254637
   8.02457953  0.00000000  8.10141254
  11.18913375  0.00000000  8.10209676
   6.40915365  3.23512150  8.09645090
   9.60693198  3.23512150  8.11409617
   6.41067568  0.00000000 11.26492357
   9.60539874  0.00000000 11.48908104
   6.40426600  3.23512150  3.61324250
   9.60639900  3.23512150  3.61324250
   6.40426600  0.00000000  0.37812100
   9.60639900  0.00000000  0.37812100
   8.00533250  5.23080325  4.85268225
  11.20746550  5.23080325  4.85268225
   8.00533250  1.99568175  1.61756075
  11.20746550  1.99568175  1.61756075
   6.40426600  3.23512150  6.09212200
   9.60639900  3.23512150  6.09212200
   6.40426600  0.00000000  2.85700050
   9.60639900  0.00000000  2.85700050
   8.00533250  1.23943975  4.85268225
  11.20746550  1.23943975  4.85268225
   8.00533250  4.47456125  1.61756075
  11.20746550  4.47456125  1.61756075
   6.35813651  3.23512150 10.06132651
   9.60682789  3.23512150 10.13040431
   6.41539028  0.00000000  6.84536680
   9.60697326  0.00000000  6.84848674
   8.00007781  5.22596169 11.39732447
  11.21080604  5.22654797 11.39990753
   8.00784347  1.99342918  8.11297185
  11.20589043  1.99355528  8.11381015
   6.41483963  3.23512150 12.52954287
   6.40484145  0.00000000  9.30966811
   9.60671143  0.00000000  9.37303206
   8.00007781  1.24428131 11.39732447
  11.21080604  1.24369503 11.39990753
   8.00784347  4.47681382  8.11297185
  11.20589043  4.47668772  8.11381015
   9.60166424  0.00000000 13.29193705
 


--------------------------------------------------------------------------------------------------------


 k-point  1 :   0.0000 0.0000 0.0000  plane waves:   54455
 k-point  2 :   0.3333 0.0000 0.0000  plane waves:   54459
 k-point  3 :   0.0000 0.3333 0.0000  plane waves:   54468
 k-point  4 :   0.3333 0.3333 0.0000  plane waves:   54434

 maximum and minimum number of plane-waves per node :     54468    54434

 maximum number of plane-waves:     54468
 maximum index in each direction: 
   IXMAX=   23   IYMAX=   11   IZMAX=   47
   IXMIN=  -23   IYMIN=  -12   IZMIN=  -47


 serial   3D FFT for wavefunctions
 parallel 3D FFT for charge:
    minimum data exchange during FFTs selected (reduces bandwidth)


 total amount of memory used by VASP MPI-rank0   172066. kBytes
=======================================================================

   base      :      30000. kBytes
   nonlr-proj:      19482. kBytes
   fftplans  :       4196. kBytes
   grid      :      37119. kBytes
   one-center:       2985. kBytes
   wavefun   :      78284. kBytes
 
     INWAV:  cpu time    0.0000: real time    0.0002
 Broyden mixing: mesh for mixing (old mesh)
   NGX = 47   NGY = 23   NGZ = 95
  (NGX  =140   NGY  = 72   NGZ  =288)
  gives a total of 102695 points

 initial charge density was supplied:
 charge density of overlapping atoms calculated
 number of electron     672.0000000 magnetization      57.6000000
 keeping initial charge density in first step


--------------------------------------------------------------------------------------------------------


 Maximum index for non-local projection operator         2430
 Maximum index for augmentation-charges          641 (set IRDMAX)


--------------------------------------------------------------------------------------------------------


 First call to EWALD:  gamma=   0.137
 Maximum number of real-space cells 3x 5x 2
 Maximum number of reciprocal cells 3x 2x 5

    FEWALD:  cpu time    0.0039: real time    0.0039


--------------------------------------- Iteration      1(   1)  ---------------------------------------


    POTLOK:  cpu time    0.1190: real time    0.1251
    SETDIJ:  cpu time    0.0162: real time    0.0183
     EDDAV:  cpu time   13.1852: real time   13.2459
       DOS:  cpu time    0.0010: real time    0.0022
    --------------------------------------------
      LOOP:  cpu time   13.3215: real time   13.3916

 eigenvalue-minimisations  :  7040
 total energy-change (2. order) : 0.7334079E+04  (-0.3011865E+05)
 number of electron     672.0000000 magnetization      57.6000000
 augmentation part      672.0000000 magnetization      57.6000000

 Free energy of the ion-electron system (eV)
  ---------------------------------------------------
  alpha Z        PSCENC =      1734.56551772
  Ewald energy   TEWEN  =    230162.84945467
  -Hartree energ DENC   =   -275298.95907450
  -exchange      EXHF   =         0.00000000
  -V(xc)+E(xc)   XCENC  =      1202.22534928
  PAW double counting   =     39861.66969181   -38639.32290733
  entropy T*S    EENTRO =        -0.05451122
  eigenvalues    EBANDS =      2742.23278897
  atomic energy  EATOM  =     45568.87297956
  Solvation  Ediel_sol  =         0.00000000
  ---------------------------------------------------
  free energy    TOTEN  =      7334.07928896 eV

  energy without entropy =     7334.13380018  energy(sigma->0) =     7334.10654457


--------------------------------------------------------------------------------------------------------




--------------------------------------- Iteration      1(   2)  ---------------------------------------


     EDDAV:  cpu time   13.6614: real time   13.6972
       DOS:  cpu time    0.0007: real time    0.0007
    --------------------------------------------
      LOOP:  cpu time   13.6622: real time   13.6980

 eigenvalue-minimisations  :  7360
 total energy-change (2. order) :-0.6884649E+04  (-0.6330800E+04)
 number of electron     672.0000000 magnetization      57.6000000
 augmentation part      672.0000000 magnetization      57.6000000

 Free energy of the ion-electron system (eV)
  ---------------------------------------------------
  alpha Z        PSCENC =      1734.56551772
  Ewald energy   TEWEN  =    230162.84945467
  -Hartree energ DENC   =   -275298.95907450
  -exchange      EXHF   =         0.00000000
  -V(xc)+E(xc)   XCENC  =      1202.22534928
  PAW double counting   =     39861.66969181   -38639.32290733
  entropy T*S    EENTRO =        -0.05149307
  eigenvalues    EBANDS =     -4142.41908225
  atomic energy  EATOM  =     45568.87297956
  Solvation  Ediel_sol  =         0.00000000
  ---------------------------------------------------
  free energy    TOTEN  =       449.43043589 eV

  energy without entropy =      449.48192896  energy(sigma->0) =      449.45618243


--------------------------------------------------------------------------------------------------------




--------------------------------------- Iteration      1(   3)  ---------------------------------------


     EDDAV:  cpu time   16.8395: real time   16.8889
       DOS:  cpu time    0.0007: real time    0.0007
    --------------------------------------------
      LOOP:  cpu time   16.8402: real time   16.8896

 eigenvalue-minimisations  :  9480
 total energy-change (2. order) :-0.1137640E+04  (-0.1094650E+04)
 number of electron     672.0000000 magnetization      57.6000000
 augmentation part      672.0000000 magnetization      57.6000000

 Free energy of the ion-electron system (eV)
  ---------------------------------------------------
  alpha Z        PSCENC =      1734.56551772
  Ewald energy   TEWEN  =    230162.84945467
  -Hartree energ DENC   =   -275298.95907450
  -exchange      EXHF   =         0.00000000
  -V(xc)+E(xc)   XCENC  =      1202.22534928
  PAW double counting   =     39861.66969181   -38639.32290733
  entropy T*S    EENTRO =        -0.07900854
  eigenvalues    EBANDS =     -5280.03109222
  atomic energy  EATOM  =     45568.87297956
  Solvation  Ediel_sol  =         0.00000000
  ---------------------------------------------------
  free energy    TOTEN  =      -688.20908955 eV

  energy without entropy =     -688.13008101  energy(sigma->0) =     -688.16958528


--------------------------------------------------------------------------------------------------------




--------------------------------------- Iteration      1(   4)  ---------------------------------------


     EDDAV:  cpu time   15.4542: real time   15.5060
       DOS:  cpu time    0.0007: real time    0.0007
    --------------------------------------------
      LOOP:  cpu time   15.4549: real time   15.5067

 eigenvalue-minimisations  :  8560
 total energy-change (2. order) :-0.5040490E+02  (-0.4940502E+02)
 number of electron     672.0000000 magnetization      57.6000000
 augmentation part      672.0000000 magnetization      57.6000000

 Free energy of the ion-electron system (eV)
  ---------------------------------------------------
  alpha Z        PSCENC =      1734.56551772
  Ewald energy   TEWEN  =    230162.84945467
  -Hartree energ DENC   =   -275298.95907450
  -exchange      EXHF   =         0.00000000
  -V(xc)+E(xc)   XCENC  =      1202.22534928
  PAW double counting   =     39861.66969181   -38639.32290733
  entropy T*S    EENTRO =        -0.08434781
  eigenvalues    EBANDS =     -5330.43065098
  atomic energy  EATOM  =     45568.87297956
  Solvation  Ediel_sol  =         0.00000000
  ---------------------------------------------------
  free energy    TOTEN  =      -738.61398757 eV

  energy without entropy =     -738.52963977  energy(sigma->0) =     -738.57181367


--------------------------------------------------------------------------------------------------------




--------------------------------------- Iteration      1(   5)  ---------------------------------------


     EDDAV:  cpu time   15.5286: real time   15.5683
       DOS:  cpu time    0.0008: real time    0.0008
    CHARGE:  cpu time    0.6167: real time    0.6182
    MIXING:  cpu time    0.0027: real time    0.0036
    --------------------------------------------
      LOOP:  cpu time   16.1488: real time   16.1909

 eigenvalue-minimisations  :  8600
 total energy-change (2. order) :-0.1415145E+01  (-0.1409595E+01)
 number of electron     672.0000437 magnetization      53.8824170
 augmentation part      118.2684136 magnetization      44.6668577

 Broyden mixing:
  rms(total) = 0.17080E+02    rms(broyden)= 0.17079E+02
  rms(prec ) = 0.17291E+02
  weight for this iteration     100.00

 Free energy of the ion-electron system (eV)
  ---------------------------------------------------
  alpha Z        PSCENC =      1734.56551772
  Ewald energy   TEWEN  =    230162.84945467
  -Hartree energ DENC   =   -275298.95907450
  -exchange      EXHF   =         0.00000000
  -V(xc)+E(xc)   XCENC  =      1202.22534928
  PAW double counting   =     39861.66969181   -38639.32290733
  entropy T*S    EENTRO =        -0.08449700
  eigenvalues    EBANDS =     -5331.84564694
  atomic energy  EATOM  =     45568.87297956
  Solvation  Ediel_sol  =         0.00000000
  ---------------------------------------------------
  free energy    TOTEN  =      -740.02913272 eV

  energy without entropy =     -739.94463573  energy(sigma->0) =     -739.98688423


--------------------------------------------------------------------------------------------------------




--------------------------------------- Iteration      1(   6)  ---------------------------------------


    POTLOK:  cpu time    0.0924: real time    0.0960
    SETDIJ:  cpu time    0.0161: real time    0.0162
    EDDIAG:  cpu time    2.6197: real time    2.6280
  RMM-DIIS:  cpu time    7.3829: real time    7.4010
    ORTHCH:  cpu time    0.5747: real time    0.5761
       DOS:  cpu time    0.0007: real time    0.0007
    CHARGE:  cpu time    0.6178: real time    0.6193
    MIXING:  cpu time    0.0027: real time    0.0028
    --------------------------------------------
      LOOP:  cpu time   11.3070: real time   11.3401

 eigenvalue-minimisations  :  7069
 total energy-change (2. order) : 0.1260526E+03  (-0.6540055E+02)
 number of electron     672.0000431 magnetization      50.5419438
 augmentation part      127.1334315 magnetization      38.3585985

 Broyden mixing:
  rms(total) = 0.10262E+02    rms(broyden)= 0.10260E+02
  rms(prec ) = 0.10537E+02
  weight for this iteration     100.00

 eigenvalues of (default mixing * dielectric matrix)
  average eigenvalue GAMMA=   1.0171
  1.0171

 Free energy of the ion-electron system (eV)
  ---------------------------------------------------
  alpha Z        PSCENC =      1734.56551772
  Ewald energy   TEWEN  =    230162.84945467
  -Hartree energ DENC   =   -275653.82545560
  -exchange      EXHF   =         0.00000000
  -V(xc)+E(xc)   XCENC  =      1278.18074209
  PAW double counting   =     47633.08173928   -46473.75665810
  entropy T*S    EENTRO =        -0.07704163
  eigenvalues    EBANDS =     -4863.86779151
  atomic energy  EATOM  =     45568.87297956
  Solvation  Ediel_sol  =         0.00000000
  ---------------------------------------------------
  free energy    TOTEN  =      -613.97651353 eV

  energy without entropy =     -613.89947189  energy(sigma->0) =     -613.93799271


--------------------------------------------------------------------------------------------------------




--------------------------------------- Iteration      1(   7)  ---------------------------------------


    POTLOK:  cpu time    0.0917: real time    0.0922
    SETDIJ:  cpu time    0.0161: real time    0.0162
    EDDIAG:  cpu time    2.6033: real time    2.6097
  RMM-DIIS:  cpu time    7.4114: real time    7.4296
    ORTHCH:  cpu time    0.5734: real time    0.5748
       DOS:  cpu time    0.0007: real time    0.0007
    CHARGE:  cpu time    0.6158: real time    0.6173
    MIXING:  cpu time    0.0026: real time    0.0026
    --------------------------------------------
      LOOP:  cpu time   11.3150: real time   11.3430

 eigenvalue-minimisations  :  7106
 total energy-change (2. order) :-0.9899901E+02  (-0.2143725E+02)
 number of electron     672.0000403 magnetization      48.9707918
 augmentation part      121.8789081 magnetization      37.9054818

 Broyden mixing:
  rms(total) = 0.16206E+02    rms(broyden)= 0.16204E+02
  rms(prec ) = 0.17468E+02
  weight for this iteration     100.00

 eigenvalues of (default mixing * dielectric matrix)
  average eigenvalue GAMMA=   0.7420
  1.2494  0.2345

 Free energy of the ion-electron system (eV)
  ---------------------------------------------------
  alpha Z        PSCENC =      1734.56551772
  Ewald energy   TEWEN  =    230162.84945467
  -Hartree energ DENC   =   -276343.89212417
  -exchange      EXHF   =         0.00000000
  -V(xc)+E(xc)   XCENC  =      1250.16158356
  PAW double counting   =     53167.70927425   -52016.63776157
  entropy T*S    EENTRO =        -0.06896438
  eigenvalues    EBANDS =     -4236.53548125
  atomic energy  EATOM  =     45568.87297956
  Solvation  Ediel_sol  =         0.00000000
  ---------------------------------------------------
  free energy    TOTEN  =      -712.97552162 eV

  energy without entropy =     -712.90655724  energy(sigma->0) =     -712.94103943


--------------------------------------------------------------------------------------------------------




--------------------------------------- Iteration      1(   8)  ---------------------------------------


    POTLOK:  cpu time    0.0930: real time    0.0998
    SETDIJ:  cpu time    0.0162: real time    0.0162
    EDDIAG:  cpu time    2.6041: real time    2.6104
  RMM-DIIS:  cpu time    7.3581: real time    7.3761
    ORTHCH:  cpu time    0.5734: real time    0.5748
       DOS:  cpu time    0.0007: real time    0.0007
    CHARGE:  cpu time    0.6110: real time    0.6125
    MIXING:  cpu time    0.0029: real time    0.0051
    --------------------------------------------
      LOOP:  cpu time   11.2593: real time   11.2956

 eigenvalue-minimisations  :  7041
 total energy-change (2. order) : 0.3069501E+02  (-0.3253454E+01)
 number of electron     672.0000436 magnetization      46.0887727
 augmentation part      122.0413912 magnetization      39.4297071

 Broyden mixing:
  rms(total) = 0.96014E+01    rms(broyden)= 0.96001E+01
  rms(prec ) = 0.11866E+02
  weight for this iteration     100.00

 eigenvalues of (default mixing * dielectric matrix)
  average eigenvalue GAMMA=   0.8016
  1.7540  0.4215  0.2294

 Free energy of the ion-electron system (eV)
  ---------------------------------------------------
  alpha Z        PSCENC =      1734.56551772
  Ewald energy   TEWEN  =    230162.84945467
  -Hartree energ DENC   =   -275893.49550201
  -exchange      EXHF   =         0.00000000
  -V(xc)+E(xc)   XCENC  =      1250.67423722
  PAW double counting   =     55564.03186086   -54420.51787744
  entropy T*S    EENTRO =        -0.05057544
  eigenvalues    EBANDS =     -4649.21060348
  atomic energy  EATOM  =     45568.87297956
  Solvation  Ediel_sol  =         0.00000000
  ---------------------------------------------------
  free energy    TOTEN  =      -682.28050835 eV

  energy without entropy =     -682.22993291  energy(sigma->0) =     -682.25522063


--------------------------------------------------------------------------------------------------------




--------------------------------------- Iteration      1(   9)  ---------------------------------------


    POTLOK:  cpu time    0.0921: real time    0.0924
    SETDIJ:  cpu time    0.0162: real time    0.0162
    EDDIAG:  cpu time    2.5996: real time    2.6063
  RMM-DIIS:  cpu time    7.5157: real time    7.5917
    ORTHCH:  cpu time    0.5746: real time    0.5760
       DOS:  cpu time    0.0007: real time    0.0007
    CHARGE:  cpu time    0.6146: real time    0.6161
    MIXING:  cpu time    0.0030: real time    0.0030
    --------------------------------------------
      LOOP:  cpu time   11.4165: real time   11.5025

 eigenvalue-minimisations  :  7132
 total energy-change (2. order) :-0.2302417E+03  (-0.1035049E+02)
 number of electron     672.0000349 magnetization      43.4440968
 augmentation part      122.9820090 magnetization      35.4017660

 Broyden mixing:
  rms(total) = 0.22065E+02    rms(broyden)= 0.22064E+02
  rms(prec ) = 0.26495E+02
  weight for this iteration     100.00

 eigenvalues of (default mixing * dielectric matrix)
  average eigenvalue GAMMA=   0.7307
  2.0910  0.4155  0.3326  0.0836

 Free energy of the ion-electron system (eV)
  ---------------------------------------------------
  alpha Z        PSCENC =      1734.56551772
  Ewald energy   TEWEN  =    230162.84945467
  -Hartree energ DENC   =   -275802.25918787
  -exchange      EXHF   =         0.00000000
  -V(xc)+E(xc)   XCENC  =      1256.45272435
  PAW double counting   =     58875.43534789   -57745.60729047
  entropy T*S    EENTRO =        -0.05758239
  eigenvalues    EBANDS =     -4962.77421508
  atomic energy  EATOM  =     45568.87297956
  Solvation  Ediel_sol  =         0.00000000
  ---------------------------------------------------
  free energy    TOTEN  =      -912.52225162 eV

  energy without entropy =     -912.46466924  energy(sigma->0) =     -912.49346043


--------------------------------------------------------------------------------------------------------




--------------------------------------- Iteration      1(  10)  ---------------------------------------


    POTLOK:  cpu time    0.0933: real time    0.0963
    SETDIJ:  cpu time    0.0161: real time    0.0162
    EDDIAG:  cpu time    2.6049: real time    2.6114
  RMM-DIIS:  cpu time    7.4908: real time    7.5091
    ORTHCH:  cpu time    0.5745: real time    0.5759
       DOS:  cpu time    0.0007: real time    0.0007
    CHARGE:  cpu time    0.6180: real time    0.6195
    MIXING:  cpu time    0.0031: real time    0.0031
    --------------------------------------------
      LOOP:  cpu time   11.4013: real time   11.4322

 eigenvalue-minimisations  :  7155
 total energy-change (2. order) : 0.1717220E+03  (-0.3885241E+01)
 number of electron     672.0000370 magnetization      43.1743642
 augmentation part      121.8315121 magnetization      34.4459544

 Broyden mixing:
  rms(total) = 0.17393E+02    rms(broyden)= 0.17393E+02
  rms(prec ) = 0.20021E+02
  weight for this iteration     100.00

 eigenvalues of (default mixing * dielectric matrix)
  average eigenvalue GAMMA=   0.6148
  1.9910  0.4191  0.2495  0.2495  0.1651

 Free energy of the ion-electron system (eV)
  ---------------------------------------------------
  alpha Z        PSCENC =      1734.56551772
  Ewald energy   TEWEN  =    230162.84945467
  -Hartree energ DENC   =   -276076.92263156
  -exchange      EXHF   =         0.00000000
  -V(xc)+E(xc)   XCENC  =      1262.86151224
  PAW double counting   =     62184.17153575   -61063.91372649
  entropy T*S    EENTRO =        -0.08638068
  eigenvalues    EBANDS =     -4513.19849308
  atomic energy  EATOM  =     45568.87297956
  Solvation  Ediel_sol  =         0.00000000
  ---------------------------------------------------
  free energy    TOTEN  =      -740.80023187 eV

  energy without entropy =     -740.71385119  energy(sigma->0) =     -740.75704153


--------------------------------------------------------------------------------------------------------




--------------------------------------- Iteration      1(  11)  ---------------------------------------


    POTLOK:  cpu time    0.0933: real time    0.0947
    SETDIJ:  cpu time    0.0161: real time    0.0161
    EDDIAG:  cpu time    2.5898: real time    2.6148
  RMM-DIIS:  cpu time    7.3799: real time    7.3991
    ORTHCH:  cpu time    0.5743: real time    0.5757
       DOS:  cpu time    0.0006: real time    0.0006
    CHARGE:  cpu time    0.6077: real time    0.6092
    MIXING:  cpu time    0.0032: real time    0.0032
    --------------------------------------------
      LOOP:  cpu time   11.2648: real time   11.3134

 eigenvalue-minimisations  :  7072
 total energy-change (2. order) :-0.9432063E+00  (-0.7814973E+00)
 number of electron     672.0000386 magnetization      42.7597644
 augmentation part      122.4407568 magnetization      37.6788936

 Broyden mixing:
  rms(total) = 0.15693E+02    rms(broyden)= 0.15693E+02
  rms(prec ) = 0.19185E+02
  weight for this iteration     100.00

 eigenvalues of (default mixing * dielectric matrix)
  average eigenvalue GAMMA=   0.6058
  1.9533  0.4269  0.4269  0.4722  0.2381  0.1173

 Free energy of the ion-electron system (eV)
  ---------------------------------------------------
  alpha Z        PSCENC =      1734.56551772
  Ewald energy   TEWEN  =    230162.84945467
  -Hartree energ DENC   =   -275839.99682209
  -exchange      EXHF   =         0.00000000
  -V(xc)+E(xc)   XCENC  =      1262.35256417
  PAW double counting   =     61778.11704699   -60658.61007197
  entropy T*S    EENTRO =        -0.04622139
  eigenvalues    EBANDS =     -4749.84788579
  atomic energy  EATOM  =     45568.87297956
  Solvation  Ediel_sol  =         0.00000000
  ---------------------------------------------------
  free energy    TOTEN  =      -741.74343815 eV

  energy without entropy =     -741.69721676  energy(sigma->0) =     -741.72032746


--------------------------------------------------------------------------------------------------------




--------------------------------------- Iteration      1(  12)  ---------------------------------------


    POTLOK:  cpu time    0.0920: real time    0.0925
    SETDIJ:  cpu time    0.0161: real time    0.0161
    EDDIAG:  cpu time    2.5967: real time    2.6031
  RMM-DIIS:  cpu time    7.3838: real time    7.4021
    ORTHCH:  cpu time    0.5754: real time    0.5768
       DOS:  cpu time    0.0007: real time    0.0007
    CHARGE:  cpu time    0.6140: real time    0.6155
    MIXING:  cpu time    0.0033: real time    0.0033
    --------------------------------------------
      LOOP:  cpu time   11.2820: real time   11.3102

 eigenvalue-minimisations  :  7040
 total energy-change (2. order) : 0.7495452E+02  (-0.2210618E+01)
 number of electron     672.0000380 magnetization      40.8759881
 augmentation part      122.6020514 magnetization      35.3815313

 Broyden mixing:
  rms(total) = 0.95844E+01    rms(broyden)= 0.95840E+01
  rms(prec ) = 0.11942E+02
  weight for this iteration     100.00

 eigenvalues of (default mixing * dielectric matrix)
  average eigenvalue GAMMA=   0.6165
  1.9835  0.6037  0.6037  0.5066  0.3159  0.1200  0.1822

 Free energy of the ion-electron system (eV)
  ---------------------------------------------------
  alpha Z        PSCENC =      1734.56551772
  Ewald energy   TEWEN  =    230162.84945467
  -Hartree energ DENC   =   -276018.30184707
  -exchange      EXHF   =         0.00000000
  -V(xc)+E(xc)   XCENC  =      1263.63195471
  PAW double counting   =     61141.25582719   -60021.26164027
  entropy T*S    EENTRO =        -0.04821139
  eigenvalues    EBANDS =     -4498.35295260
  atomic energy  EATOM  =     45568.87297956
  Solvation  Ediel_sol  =         0.00000000
  ---------------------------------------------------
  free energy    TOTEN  =      -666.78891749 eV

  energy without entropy =     -666.74070610  energy(sigma->0) =     -666.76481179


--------------------------------------------------------------------------------------------------------




--------------------------------------- Iteration      1(  13)  ---------------------------------------


    POTLOK:  cpu time    0.0923: real time    0.0928
    SETDIJ:  cpu time    0.0161: real time    0.0162
    EDDIAG:  cpu time    2.6052: real time    2.6118
  RMM-DIIS:  cpu time    7.3699: real time    7.3881
    ORTHCH:  cpu time    0.5756: real time    0.5770
       DOS:  cpu time    0.0007: real time    0.0007
    CHARGE:  cpu time    0.6184: real time    0.6199
    MIXING:  cpu time    0.0035: real time    0.0035
    --------------------------------------------
      LOOP:  cpu time   11.2817: real time   11.3099

 eigenvalue-minimisations  :  7054
 total energy-change (2. order) : 0.7188553E+02  (-0.3500221E+01)
 number of electron     672.0000448 magnetization      38.6544072
 augmentation part      123.6657964 magnetization      30.7788820

 Broyden mixing:
  rms(total) = 0.55406E+01    rms(broyden)= 0.55381E+01
  rms(prec ) = 0.64951E+01
  weight for this iteration     100.00

 eigenvalues of (default mixing * dielectric matrix)
  average eigenvalue GAMMA=   0.6292
  2.3190  0.5367  0.5367  0.6385  0.3564  0.3564  0.1211  0.1686

 Free energy of the ion-electron system (eV)
  ---------------------------------------------------
  alpha Z        PSCENC =      1734.56551772
  Ewald energy   TEWEN  =    230162.84945467
  -Hartree energ DENC   =   -275644.50650990
  -exchange      EXHF   =         0.00000000
  -V(xc)+E(xc)   XCENC  =      1267.47548680
  PAW double counting   =     61333.16794973   -60216.96519268
  entropy T*S    EENTRO =        -0.07015189
  eigenvalues    EBANDS =     -4800.29292075
  atomic energy  EATOM  =     45568.87297956
  Solvation  Ediel_sol  =         0.00000000
  ---------------------------------------------------
  free energy    TOTEN  =      -594.90338675 eV

  energy without entropy =     -594.83323486  energy(sigma->0) =     -594.86831080


--------------------------------------------------------------------------------------------------------




--------------------------------------- Iteration      1(  14)  ---------------------------------------


    POTLOK:  cpu time    0.0930: real time    0.1000
    SETDIJ:  cpu time    0.0162: real time    0.0162
    EDDIAG:  cpu time    2.6097: real time    2.6161
  RMM-DIIS:  cpu time    7.3855: real time    7.4040
    ORTHCH:  cpu time    0.5760: real time    0.5774
       DOS:  cpu time    0.0007: real time    0.0007
    CHARGE:  cpu time    0.6135: real time    0.6150
    MIXING:  cpu time    0.0037: real time    0.0037
    --------------------------------------------
      LOOP:  cpu time   11.2983: real time   11.3332

 eigenvalue-minimisations  :  7050
 total energy-change (2. order) : 0.3697687E+01  (-0.1259014E+01)
 number of electron     672.0000433 magnetization      38.0882038
 augmentation part      123.4701414 magnetization      31.2639463

 Broyden mixing:
  rms(total) = 0.45095E+01    rms(broyden)= 0.45087E+01
  rms(prec ) = 0.47088E+01
  weight for this iteration     100.00

 eigenvalues of (default mixing * dielectric matrix)
  average eigenvalue GAMMA=   0.5923
  2.1988  0.7188  0.5165  0.5165  0.3999  0.3999  0.2920  0.1209  0.1671

 Free energy of the ion-electron system (eV)
  ---------------------------------------------------
  alpha Z        PSCENC =      1734.56551772
  Ewald energy   TEWEN  =    230162.84945467
  -Hartree energ DENC   =   -275725.66074079
  -exchange      EXHF   =         0.00000000
  -V(xc)+E(xc)   XCENC  =      1264.37445541
  PAW double counting   =     62352.57874153   -61241.24888893
  entropy T*S    EENTRO =        -0.06649702
  eigenvalues    EBANDS =     -4707.47072149
  atomic energy  EATOM  =     45568.87297956
  Solvation  Ediel_sol  =         0.00000000
  ---------------------------------------------------
  free energy    TOTEN  =      -591.20569934 eV

  energy without entropy =     -591.13920232  energy(sigma->0) =     -591.17245083


--------------------------------------------------------------------------------------------------------




--------------------------------------- Iteration      1(  15)  ---------------------------------------


    POTLOK:  cpu time    0.0922: real time    0.0927
    SETDIJ:  cpu time    0.0162: real time    0.0162
    EDDIAG:  cpu time    2.6050: real time    2.6114
  RMM-DIIS:  cpu time    7.3655: real time    7.3839
    ORTHCH:  cpu time    0.5762: real time    0.5776
       DOS:  cpu time    0.0007: real time    0.0007
    CHARGE:  cpu time    0.6144: real time    0.6159
    MIXING:  cpu time    0.0042: real time    0.0042
    --------------------------------------------
      LOOP:  cpu time   11.2743: real time   11.3025

 eigenvalue-minimisations  :  7040
 total energy-change (2. order) : 0.1129267E+01  (-0.3448435E+00)
 number of electron     672.0000430 magnetization      37.7288714
 augmentation part      123.4678930 magnetization      30.1491738

 Broyden mixing:
  rms(total) = 0.32739E+01    rms(broyden)= 0.32734E+01
  rms(prec ) = 0.33724E+01
  weight for this iteration     100.00

[...]
      6.414840  3.235121 12.529543            0           0           0  
      6.404841  0.000000  9.309668            0           0           0  
      9.606711  0.000000  9.373032            0           0           0  
      8.000078  1.244281 11.397324            0           0           0  
     11.210806  1.243695 11.399908            0           0           0  
      8.007843  4.476814  8.112972            0           0           0  
     11.205890  4.476688  8.113810            0           0           0  
      9.601664  0.000000 13.291937     0.031398   -0.000783    0.999507  
 
   2 f  =    7.936163 THz    49.864383 2PiTHz  264.721896 cm-1    32.821344 meV
             X         Y         Z           dx          dy          dz
      1.601066  3.235121  4.852682            0           0           0  
      4.803199  3.235121  4.852682            0           0           0  
      1.601066  0.000000  1.617561            0           0           0  
      4.803199  0.000000  1.617561            0           0           0  
      0.000000  3.235121  1.617561            0           0           0  
      3.202133  3.235121  1.617561            0           0           0  
      0.000000  0.000000  4.852682            0           0           0  
      3.202133  0.000000  4.852682            0           0           0  
      1.605155  3.235121 11.358249            0           0           0  
      4.799711  3.235121 11.358000            0           0           0  
      1.597646  0.000000  8.074047            0           0           0  
      4.807439  0.000000  8.073649            0           0           0  
     12.804594  3.235121  8.096501            0           0           0  
      3.202878  3.235121  8.094058            0           0           0  
     12.801209  0.000000 11.265975            0           0           0  
      3.202051  0.000000 11.261467            0           0           0  
      0.000000  3.235121  3.613243            0           0           0  
      3.202133  3.235121  3.613243            0           0           0  
      0.000000  0.000000  0.378121            0           0           0  
      3.202133  0.000000  0.378121            0           0           0  
      1.601066  5.230803  4.852682            0           0           0  
      4.803199  5.230803  4.852682            0           0           0  
      1.601066  1.995682  1.617561            0           0           0  
      4.803199  1.995682  1.617561            0           0           0  
      0.000000  3.235121  6.092122            0           0           0  
      3.202133  3.235121  6.092122            0           0           0  
      0.000000  0.000000  2.857000            0           0           0  
      3.202133  0.000000  2.857000            0           0           0  
      1.601066  1.239440  4.852682            0           0           0  
      4.803199  1.239440  4.852682            0           0           0  
      1.601066  4.474561  1.617561            0           0           0  
      4.803199  4.474561  1.617561            0           0           0  
      0.046807  3.235121 10.061432            0           0           0  
      3.203200  3.235121 10.087085            0           0           0  
     12.797834  0.000000  6.846225            0           0           0  
      3.202382  0.000000  6.836681            0           0           0  
      1.606493  5.243044 11.407311            0           0           0  
      4.797836  5.242821 11.407248            0           0           0  
      1.599486  1.994192  8.078652            0           0           0  
      4.805912  1.994192  8.077482            0           0           0  
     12.798618  3.235121 12.531332            0           0           0  
      3.202082  3.235121 12.535552            0           0           0  
     12.808130  0.000000  9.310829            0           0           0  
      3.202131  0.000000  9.303781            0           0           0  
      1.606493  1.227199 11.407311            0           0           0  
      4.797836  1.227422 11.407248            0           0           0  
      1.599486  4.476051  8.078652            0           0           0  
      4.805912  4.476051  8.077482            0           0           0  
      8.005332  3.235121  4.852682            0           0           0  
     11.207465  3.235121  4.852682            0           0           0  
      8.005332  0.000000  1.617561            0           0           0  
     11.207465  0.000000  1.617561            0           0           0  
      6.404266  3.235121  1.617561            0           0           0  
      9.606399  3.235121  1.617561            0           0           0  
      6.404266  0.000000  4.852682            0           0           0  
      9.606399  0.000000  4.852682            0           0           0  
      7.991248  3.235121 11.340664            0           0           0  
     11.222098  3.235121 11.342546            0           0           0  
      8.024580  0.000000  8.101413            0           0           0  
     11.189134  0.000000  8.102097            0           0           0  
      6.409154  3.235121  8.096451            0           0           0  
      9.606932  3.235121  8.114096            0           0           0  
      6.410676  0.000000 11.264924            0           0           0  
      9.605399  0.000000 11.489081            0           0           0  
      6.404266  3.235121  3.613243            0           0           0  
      9.606399  3.235121  3.613243            0           0           0  
      6.404266  0.000000  0.378121            0           0           0  
      9.606399  0.000000  0.378121            0           0           0  
      8.005332  5.230803  4.852682            0           0           0  
     11.207465  5.230803  4.852682            0           0           0  
      8.005332  1.995682  1.617561            0           0           0  
     11.207465  1.995682  1.617561            0           0           0  
      6.404266  3.235121  6.092122            0           0           0  
      9.606399  3.235121  6.092122            0           0           0  
      6.404266  0.000000  2.857000            0           0           0  
      9.606399  0.000000  2.857000            0           0           0  
      8.005332  1.239440  4.852682            0           0           0  
     11.207465  1.239440  4.852682            0           0           0  
      8.005332  4.474561  1.617561            0           0           0  
     11.207465  4.474561  1.617561            0           0           0  
      6.358137  3.235121 10.061327            0           0           0  
      9.606828  3.235121 10.130404            0           0           0  
      6.415390  0.000000  6.845367            0           0           0  
      9.606973  0.000000  6.848487            0           0           0  
      8.000078  5.225962 11.397324            0           0           0  
     11.210806  5.226548 11.399908            0           0           0  
      8.007843  1.993429  8.112972            0           0           0  
     11.205890  1.993555  8.113810            0           0           0  
      6.414840  3.235121 12.529543            0           0           0  
      6.404841  0.000000  9.309668            0           0           0  
      9.606711  0.000000  9.373032            0           0           0  
      8.000078  1.244281 11.397324            0           0           0  
     11.210806  1.243695 11.399908            0           0           0  
      8.007843  4.476814  8.112972            0           0           0  
     11.205890  4.476688  8.113810            0           0           0  
      9.601664  0.000000 13.291937    -0.999507    0.000337    0.031399  
 
   3 f  =    4.119375 THz    25.882796 2PiTHz  137.407553 cm-1    17.036371 meV
             X         Y         Z           dx          dy          dz
      1.601066  3.235121  4.852682            0           0           0  
      4.803199  3.235121  4.852682            0           0           0  
      1.601066  0.000000  1.617561            0           0           0  
      4.803199  0.000000  1.617561            0           0           0  
      0.000000  3.235121  1.617561            0           0           0  
      3.202133  3.235121  1.617561            0           0           0  
      0.000000  0.000000  4.852682            0           0           0  
      3.202133  0.000000  4.852682            0           0           0  
      1.605155  3.235121 11.358249            0           0           0  
      4.799711  3.235121 11.358000            0           0           0  
      1.597646  0.000000  8.074047            0           0           0  
      4.807439  0.000000  8.073649            0           0           0  
     12.804594  3.235121  8.096501            0           0           0  
      3.202878  3.235121  8.094058            0           0           0  
     12.801209  0.000000 11.265975            0           0           0  
      3.202051  0.000000 11.261467            0           0           0  
      0.000000  3.235121  3.613243            0           0           0  
      3.202133  3.235121  3.613243            0           0           0  
      0.000000  0.000000  0.378121            0           0           0  
      3.202133  0.000000  0.378121            0           0           0  
      1.601066  5.230803  4.852682            0           0           0  
      4.803199  5.230803  4.852682            0           0           0  
      1.601066  1.995682  1.617561            0           0           0  
      4.803199  1.995682  1.617561            0           0           0  
      0.000000  3.235121  6.092122            0           0           0  
      3.202133  3.235121  6.092122            0           0           0  
      0.000000  0.000000  2.857000            0           0           0  
      3.202133  0.000000  2.857000            0           0           0  
      1.601066  1.239440  4.852682            0           0           0  
      4.803199  1.239440  4.852682            0           0           0  
      1.601066  4.474561  1.617561            0           0           0  
      4.803199  4.474561  1.617561            0           0           0  
      0.046807  3.235121 10.061432            0           0           0  
      3.203200  3.235121 10.087085            0           0           0  
     12.797834  0.000000  6.846225            0           0           0  
      3.202382  0.000000  6.836681            0           0           0  
      1.606493  5.243044 11.407311            0           0           0  
      4.797836  5.242821 11.407248            0           0           0  
      1.599486  1.994192  8.078652            0           0           0  
      4.805912  1.994192  8.077482            0           0           0  
     12.798618  3.235121 12.531332            0           0           0  
      3.202082  3.235121 12.535552            0           0           0  
     12.808130  0.000000  9.310829            0           0           0  
      3.202131  0.000000  9.303781            0           0           0  
      1.606493  1.227199 11.407311            0           0           0  
      4.797836  1.227422 11.407248            0           0           0  
      1.599486  4.476051  8.078652            0           0           0  
      4.805912  4.476051  8.077482            0           0           0  
      8.005332  3.235121  4.852682            0           0           0  
     11.207465  3.235121  4.852682            0           0           0  
      8.005332  0.000000  1.617561            0           0           0  
     11.207465  0.000000  1.617561            0           0           0  
      6.404266  3.235121  1.617561            0           0           0  
      9.606399  3.235121  1.617561            0           0           0  
      6.404266  0.000000  4.852682            0           0           0  
      9.606399  0.000000  4.852682            0           0           0  
      7.991248  3.235121 11.340664            0           0           0  
     11.222098  3.235121 11.342546            0           0           0  
      8.024580  0.000000  8.101413            0           0           0  
     11.189134  0.000000  8.102097            0           0           0  
      6.409154  3.235121  8.096451            0           0           0  
      9.606932  3.235121  8.114096            0           0           0  
      6.410676  0.000000 11.264924            0           0           0  
      9.605399  0.000000 11.489081            0           0           0  
      6.404266  3.235121  3.613243            0           0           0  
      9.606399  3.235121  3.613243            0           0           0  
      6.404266  0.000000  0.378121            0           0           0  
      9.606399  0.000000  0.378121            0           0           0  
      8.005332  5.230803  4.852682            0           0           0  
     11.207465  5.230803  4.852682            0           0           0  
      8.005332  1.995682  1.617561            0           0           0  
     11.207465  1.995682  1.617561            0           0           0  
      6.404266  3.235121  6.092122            0           0           0  
      9.606399  3.235121  6.092122            0           0           0  
      6.404266  0.000000  2.857000            0           0           0  
      9.606399  0.000000  2.857000            0           0           0  
      8.005332  1.239440  4.852682            0           0           0  
     11.207465  1.239440  4.852682            0           0           0  
      8.005332  4.474561  1.617561            0           0           0  
     11.207465  4.474561  1.617561            0           0           0  
      6.358137  3.235121 10.061327            0           0           0  
      9.606828  3.235121 10.130404            0           0           0  
      6.415390  0.000000  6.845367            0           0           0  
      9.606973  0.000000  6.848487            0           0           0  
      8.000078  5.225962 11.397324            0           0           0  
     11.210806  5.226548 11.399908            0           0           0  
      8.007843  1.993429  8.112972            0           0           0  
     11.205890  1.993555  8.113810            0           0           0  
      6.414840  3.235121 12.529543            0           0           0  
      6.404841  0.000000  9.309668            0           0           0  
      9.606711  0.000000  9.373032            0           0           0  
      8.000078  1.244281 11.397324            0           0           0  
     11.210806  1.243695 11.399908            0           0           0  
      8.007843  4.476814  8.112972            0           0           0  
     11.205890  4.476688  8.113810            0           0           0  
      9.601664  0.000000 13.291937     0.000362    1.000000    0.000772  
 
 Finite differences POTIM=  1.500000000000000E-002
  LATTYP: Found a simple orthorhombic cell.
 ALAT       =     6.4702430000
 B/A-ratio  =     1.9796060210
 C/A-ratio  =     4.0000000000
  
  Lattice vectors:
  
 A1 = (   0.0000000000,  -6.4702430000,   0.0000000000)
 A2 = ( -12.8085320000,   0.0000000000,   0.0000000000)
 A3 = (   0.0000000000,   0.0000000000, -25.8809720000)


Analysis of symmetry for initial positions (statically):
=====================================================================
 Subroutine PRICEL returns:
 Original cell was already a primitive cell.
 

 Routine SETGRP: Setting up the symmetry group for a 
 simple orthorhombic supercell.


 Subroutine GETGRP returns: Found  2 space group operations
 (whereof  2 operations were pure point group operations)
 out of a pool of  8 trial point group operations.


The static configuration has the point symmetry C_1h.


Analysis of symmetry for dynamics (positions and initial velocities):
=====================================================================
 Subroutine PRICEL returns:
 Original cell was already a primitive cell.
 

 Routine SETGRP: Setting up the symmetry group for a 
 simple orthorhombic supercell.


 Subroutine GETGRP returns: Found  2 space group operations
 (whereof  2 operations were pure point group operations)
 out of a pool of  8 trial point group operations.


The dynamic configuration has the point symmetry C_1h.


Analysis of constrained symmetry for selective dynamics:
=====================================================================
 Subroutine PRICEL returns:
 Original cell was already a primitive cell.
 

 Routine SETGRP: Setting up the symmetry group for a 
 simple orthorhombic supercell.


 Subroutine GETGRP returns: Found  2 space group operations
 (whereof  2 operations were pure point group operations)
 out of a pool of  8 trial point group operations.


The constrained configuration has the point symmetry C_1h.


Analysis of structural, dynamic, and magnetic symmetry:
=====================================================================
 Subroutine PRICEL returns:
 Original cell was already a primitive cell.
 

 Routine SETGRP: Setting up the symmetry group for a 
 simple orthorhombic supercell.


 Subroutine GETGRP returns: Found  2 space group operations
 (whereof  2 operations were pure point group operations)
 out of a pool of  8 trial point group operations.


The magnetic configuration has the point symmetry C_1h.


 Subroutine INISYM returns: Found  2 space group operations
 (whereof  2 operations are pure point group operations),
 and found     1 'primitive' translations

 
 KPOINTS: Automatic mesh                          

Automatic generation of k-mesh.
Space group operators:
 irot       det(A)        alpha          n_x          n_y          n_z        tau_x        tau_y        tau_z
    1     1.000000     0.000001     1.000000     0.000000     0.000000     0.000000     0.000000     0.000000
    2    -1.000000   180.000000     0.000000     1.000000     0.000000     0.000000     0.000000     0.000000
 
 Subroutine IBZKPT returns following result:
 ===========================================
 
 Found      4 irreducible k-points:
 
 Following reciprocal coordinates:
            Coordinates               Weight
  0.000000  0.000000  0.000000      1.000000
  0.333333  0.000000  0.000000      2.000000
  0.000000  0.333333  0.000000      2.000000
  0.333333  0.333333  0.000000      4.000000
 
 Following cartesian coordinates:
            Coordinates               Weight
  0.000000  0.000000  0.000000      1.000000
  0.026024  0.000000  0.000000      2.000000
  0.000000  0.051518  0.000000      2.000000
  0.026024  0.051518  0.000000      4.000000
 
     LOOP+:  cpu time  187.1862: real time  187.8209
    4ORBIT:  cpu time    0.0000: real time    0.0000

 total amount of memory used by VASP MPI-rank0   172066. kBytes
=======================================================================

   base      :      30000. kBytes
   nonlr-proj:      19482. kBytes
   fftplans  :       4196. kBytes
   grid      :      37119. kBytes
   one-center:       2985. kBytes
   wavefun   :      78284. kBytes
 
  
  
 General timing and accounting informations for this job:
 ========================================================
  
                  Total CPU time used (sec):     1802.238
                            User time (sec):     1776.904
                          System time (sec):       25.334
                         Elapsed time (sec):     1809.053
  
                   Maximum memory used (kb):      401832.
                   Average memory used (kb):           0.
  
                          Minor page faults:      1347696
                          Major page faults:          212
                 Voluntary context switches:         7317
