 vasp.5.4.4.18Apr17-6-g9f103f2a35 (build Feb 25 2019 10:51:38) complex          
  
 executed on             LinuxIFC date 2023.03.14  11:38:47
 running on   40 total cores
 distrk:  each k-point on   40 cores,    1 groups
 distr:  one band on NCORES_PER_BAND=  10 cores,    4 groups


--------------------------------------------------------------------------------------------------------


 INCAR:
 POTCAR:    PAW_PBE Ir 06Sep2000                  
 POTCAR:    PAW_PBE O 08Apr2002                   
 POTCAR:    PAW_PBE Ir 06Sep2000                  
 POTCAR:    PAW_PBE O 08Apr2002                   
 POTCAR:    PAW_PBE Ir 06Sep2000                  
   VRHFIN =Ir: s1d8                                                             
   LEXCH  = PE                                                                  
   EATOM  =   560.1833 eV,   41.1723 Ry                                         
                                                                                
   TITEL  = PAW_PBE Ir 06Sep2000                                                
   LULTRA =        F    use ultrasoft PP ?                                      
   IUNSCR =        1    unscreen: 0-lin 1-nonlin 2-no                           
   RPACOR =    2.250    partial core radius                                     
   POMASS =  192.220; ZVAL   =    9.000    mass and valenz                      
   RCORE  =    2.600    outmost cutoff radius                                   
   RWIGS  =    2.690; RWIGS  =    1.423    wigner-seitz radius (au A)           
   ENMAX  =  210.864; ENMIN  =  158.148 eV                                      
   RCLOC  =    1.857    cutoff for local pot                                    
   LCOR   =        T    correct aug charges                                     
   LPAW   =        T    paw PP                                                  
   EAUG   =  318.962                                                            
   DEXC   =    0.000                                                            
   RMAX   =    2.667    core radius for proj-oper                               
   RAUG   =    1.300    factor for augmentation sphere                          
   RDEP   =    2.748    radius for radial grids                                 
   RDEPT  =    2.300    core radius for aug-charge                              
                                                                                
   Atomic configuration                                                         
   16 entries                                                                   
     n  l   j            E        occ.                                          
     1  0  0.50    -76100.0449   2.0000                                         
     2  0  0.50    -13308.1683   2.0000                                         
     2  1  1.50    -11558.0021   6.0000                                         
     3  0  0.50     -3110.7274   2.0000                                         
     3  1  1.50     -2599.2109   6.0000                                         
     3  2  2.50     -2037.1515  10.0000                                         
     4  0  0.50      -661.6001   2.0000                                         
     4  1  1.50      -493.8981   6.0000                                         
     4  2  2.50      -288.1909  10.0000                                         
     4  3  3.50       -59.5718  14.0000                                         
     5  0  0.50       -95.3879   2.0000                                         
     5  1  1.50       -52.2747   6.0000                                         
     5  2  2.50        -5.4180   8.0000                                         
     6  0  0.50        -5.5479   1.0000                                         
     6  1  1.50        -6.8029   0.0000                                         
     5  3  2.50        -1.3606   0.0000                                         
   Description                                                                  
     l       E           TYP  RCUT    TYP  RCUT                                 
     2     -5.4179967     23  2.600                                             
     2     -6.7785793     23  2.600                                             
     0     -5.5478636     23  2.600                                             
     0      2.2542272     23  2.600                                             
     1     -2.7211652     23  2.600                                             
     1     20.4087390     23  2.600                                             
  local pseudopotential read in
  partial core-charges read in
  partial kinetic energy density read in
  atomic valenz-charges read in
  non local Contribution for L=           2  read in
    real space projection operators read in
  non local Contribution for L=           2  read in
    real space projection operators read in
  non local Contribution for L=           0  read in
    real space projection operators read in
  non local Contribution for L=           0  read in
    real space projection operators read in
  non local Contribution for L=           1  read in
    real space projection operators read in
  non local Contribution for L=           1  read in
    real space projection operators read in
    PAW grid and wavefunctions read in
 
   number of l-projection  operators is LMAX  =           6
   number of lm-projection operators is LMMAX =          18
 
 POTCAR:    PAW_PBE O 08Apr2002                   
   VRHFIN =O: s2p4                                                              
   LEXCH  = PE                                                                  
   EATOM  =   432.3788 eV,   31.7789 Ry                                         
                                                                                
   TITEL  = PAW_PBE O 08Apr2002                                                 
   LULTRA =        F    use ultrasoft PP ?                                      
   IUNSCR =        1    unscreen: 0-lin 1-nonlin 2-no                           
   RPACOR =    1.200    partial core radius                                     
   POMASS =   16.000; ZVAL   =    6.000    mass and valenz                      
   RCORE  =    1.520    outmost cutoff radius                                   
   RWIGS  =    1.550; RWIGS  =    0.820    wigner-seitz radius (au A)           
   ENMAX  =  400.000; ENMIN  =  300.000 eV                                      
   ICORE  =        2    local potential                                         
   LCOR   =        T    correct aug charges                                     
   LPAW   =        T    paw PP                                                  
   EAUG   =  605.392                                                            
   DEXC   =    0.000                                                            
   RMAX   =    1.553    core radius for proj-oper                               
   RAUG   =    1.300    factor for augmentation sphere                          
   RDEP   =    1.550    radius for radial grids                                 
   RDEPT  =    1.329    core radius for aug-charge                              
                                                                                
   Atomic configuration                                                         
    4 entries                                                                   
     n  l   j            E        occ.                                          
     1  0  0.50      -514.6923   2.0000                                         
     2  0  0.50       -23.9615   2.0000                                         
     2  1  0.50        -9.0305   4.0000                                         
     3  2  1.50        -9.5241   0.0000                                         
   Description                                                                  
     l       E           TYP  RCUT    TYP  RCUT                                 
     0    -23.9615318     23  1.200                                             
     0     -9.5240782     23  1.200                                             
     1     -9.0304911     23  1.520                                             
     1      8.1634956     23  1.520                                             
     2     -9.5240782      7  1.500                                             
  local pseudopotential read in
  partial core-charges read in
  partial kinetic energy density read in
  kinetic energy density of atom read in
  atomic valenz-charges read in
  non local Contribution for L=           0  read in
    real space projection operators read in
  non local Contribution for L=           0  read in
    real space projection operators read in
  non local Contribution for L=           1  read in
    real space projection operators read in
  non local Contribution for L=           1  read in
    real space projection operators read in
    PAW grid and wavefunctions read in
 
   number of l-projection  operators is LMAX  =           4
   number of lm-projection operators is LMMAX =           8
 
 POTCAR:    PAW_PBE Ir 06Sep2000                  
   VRHFIN =Ir: s1d8                                                             
   LEXCH  = PE                                                                  
   EATOM  =   560.1833 eV,   41.1723 Ry                                         
                                                                                
   TITEL  = PAW_PBE Ir 06Sep2000                                                
   LULTRA =        F    use ultrasoft PP ?                                      
   IUNSCR =        1    unscreen: 0-lin 1-nonlin 2-no                           
   RPACOR =    2.250    partial core radius                                     
   POMASS =  192.220; ZVAL   =    9.000    mass and valenz                      
   RCORE  =    2.600    outmost cutoff radius                                   
   RWIGS  =    2.690; RWIGS  =    1.423    wigner-seitz radius (au A)           
   ENMAX  =  210.864; ENMIN  =  158.148 eV                                      
   RCLOC  =    1.857    cutoff for local pot                                    
   LCOR   =        T    correct aug charges                                     
   LPAW   =        T    paw PP                                                  
   EAUG   =  318.962                                                            
   DEXC   =    0.000                                                            
   RMAX   =    2.667    core radius for proj-oper                               
   RAUG   =    1.300    factor for augmentation sphere                          
   RDEP   =    2.748    radius for radial grids                                 
   RDEPT  =    2.300    core radius for aug-charge                              
                                                                                
   Atomic configuration                                                         
   16 entries                                                                   
     n  l   j            E        occ.                                          
     1  0  0.50    -76100.0449   2.0000                                         
     2  0  0.50    -13308.1683   2.0000                                         
     2  1  1.50    -11558.0021   6.0000                                         
     3  0  0.50     -3110.7274   2.0000                                         
     3  1  1.50     -2599.2109   6.0000                                         
     3  2  2.50     -2037.1515  10.0000                                         
     4  0  0.50      -661.6001   2.0000                                         
     4  1  1.50      -493.8981   6.0000                                         
     4  2  2.50      -288.1909  10.0000                                         
     4  3  3.50       -59.5718  14.0000                                         
     5  0  0.50       -95.3879   2.0000                                         
     5  1  1.50       -52.2747   6.0000                                         
     5  2  2.50        -5.4180   8.0000                                         
     6  0  0.50        -5.5479   1.0000                                         
     6  1  1.50        -6.8029   0.0000                                         
     5  3  2.50        -1.3606   0.0000                                         
   Description                                                                  
     l       E           TYP  RCUT    TYP  RCUT                                 
     2     -5.4179967     23  2.600                                             
     2     -6.7785793     23  2.600                                             
     0     -5.5478636     23  2.600                                             
     0      2.2542272     23  2.600                                             
     1     -2.7211652     23  2.600                                             
     1     20.4087390     23  2.600                                             
  local pseudopotential read in
  partial core-charges read in
  partial kinetic energy density read in
  atomic valenz-charges read in
  non local Contribution for L=           2  read in
    real space projection operators read in
  non local Contribution for L=           2  read in
    real space projection operators read in
  non local Contribution for L=           0  read in
    real space projection operators read in
  non local Contribution for L=           0  read in
    real space projection operators read in
  non local Contribution for L=           1  read in
    real space projection operators read in
  non local Contribution for L=           1  read in
    real space projection operators read in
    PAW grid and wavefunctions read in
 
   number of l-projection  operators is LMAX  =           6
   number of lm-projection operators is LMMAX =          18
 
 POTCAR:    PAW_PBE O 08Apr2002                   
   VRHFIN =O: s2p4                                                              
   LEXCH  = PE                                                                  
   EATOM  =   432.3788 eV,   31.7789 Ry                                         
                                                                                
   TITEL  = PAW_PBE O 08Apr2002                                                 
   LULTRA =        F    use ultrasoft PP ?                                      
   IUNSCR =        1    unscreen: 0-lin 1-nonlin 2-no                           
   RPACOR =    1.200    partial core radius                                     
   POMASS =   16.000; ZVAL   =    6.000    mass and valenz                      
   RCORE  =    1.520    outmost cutoff radius                                   
   RWIGS  =    1.550; RWIGS  =    0.820    wigner-seitz radius (au A)           
   ENMAX  =  400.000; ENMIN  =  300.000 eV                                      
   ICORE  =        2    local potential                                         
   LCOR   =        T    correct aug charges                                     
   LPAW   =        T    paw PP                                                  
   EAUG   =  605.392                                                            
   DEXC   =    0.000                                                            
   RMAX   =    1.553    core radius for proj-oper                               
   RAUG   =    1.300    factor for augmentation sphere                          
   RDEP   =    1.550    radius for radial grids                                 
   RDEPT  =    1.329    core radius for aug-charge                              
                                                                                
   Atomic configuration                                                         
    4 entries                                                                   
     n  l   j            E        occ.                                          
     1  0  0.50      -514.6923   2.0000                                         
     2  0  0.50       -23.9615   2.0000                                         
     2  1  0.50        -9.0305   4.0000                                         
     3  2  1.50        -9.5241   0.0000                                         
   Description                                                                  
     l       E           TYP  RCUT    TYP  RCUT                                 
     0    -23.9615318     23  1.200                                             
     0     -9.5240782     23  1.200                                             
     1     -9.0304911     23  1.520                                             
     1      8.1634956     23  1.520                                             
     2     -9.5240782      7  1.500                                             
  local pseudopotential read in
  partial core-charges read in
  partial kinetic energy density read in
  kinetic energy density of atom read in
  atomic valenz-charges read in
  non local Contribution for L=           0  read in
    real space projection operators read in
  non local Contribution for L=           0  read in
    real space projection operators read in
  non local Contribution for L=           1  read in
    real space projection operators read in
  non local Contribution for L=           1  read in
    real space projection operators read in
    PAW grid and wavefunctions read in
 
   number of l-projection  operators is LMAX  =           4
   number of lm-projection operators is LMMAX =           8
 
 Optimization of the real space projectors (new method)

 maximal supplied QI-value         = 14.36
 optimisation between [QCUT,QGAM] = [ 11.35, 22.84] = [ 36.05,146.02] Ry 
 Optimized for a Real-space Cutoff    1.52 Angstroem

   l    n(q)    QCUT    max X(q) W(low)/X(q) W(high)/X(q)  e(spline) 
   2      9    11.346   134.116    0.47E-03    0.13E-03    0.92E-06
   2      9    11.346   130.192    0.47E-03    0.13E-03    0.92E-06
   0     10    11.346    60.310    0.74E-04    0.13E-03    0.69E-06
   0     10    11.346    39.218    0.68E-04    0.12E-03    0.65E-06
   1     10    11.346    18.439    0.15E-03    0.34E-04    0.20E-06
   1     10    11.346    12.760    0.12E-03    0.31E-04    0.16E-06
 Optimization of the real space projectors (new method)

 maximal supplied QI-value         = 24.76
 optimisation between [QCUT,QGAM] = [ 11.39, 22.77] = [ 36.31,145.25] Ry 
 Optimized for a Real-space Cutoff    1.00 Angstroem

   l    n(q)    QCUT    max X(q) W(low)/X(q) W(high)/X(q)  e(spline) 
   0      7    11.387    20.381    0.39E-03    0.13E-02    0.15E-06
   0      7    11.387    15.268    0.42E-03    0.14E-02    0.17E-06
   1      6    11.387     5.964    0.41E-03    0.11E-02    0.17E-06
   1      6    11.387     5.382    0.39E-03    0.87E-03    0.15E-06
 Optimization of the real space projectors (new method)

 maximal supplied QI-value         = 14.36
 optimisation between [QCUT,QGAM] = [ 11.35, 22.84] = [ 36.05,146.02] Ry 
 Optimized for a Real-space Cutoff    1.52 Angstroem

   l    n(q)    QCUT    max X(q) W(low)/X(q) W(high)/X(q)  e(spline) 
   2      9    11.346   134.116    0.47E-03    0.13E-03    0.92E-06
   2      9    11.346   130.192    0.47E-03    0.13E-03    0.92E-06
   0     10    11.346    60.310    0.74E-04    0.13E-03    0.69E-06
   0     10    11.346    39.218    0.68E-04    0.12E-03    0.65E-06
   1     10    11.346    18.439    0.15E-03    0.34E-04    0.20E-06
   1     10    11.346    12.760    0.12E-03    0.31E-04    0.16E-06
 Optimization of the real space projectors (new method)

 maximal supplied QI-value         = 24.76
 optimisation between [QCUT,QGAM] = [ 11.39, 22.77] = [ 36.31,145.25] Ry 
 Optimized for a Real-space Cutoff    1.00 Angstroem

   l    n(q)    QCUT    max X(q) W(low)/X(q) W(high)/X(q)  e(spline) 
   0      7    11.387    20.381    0.39E-03    0.13E-02    0.15E-06
   0      7    11.387    15.268    0.42E-03    0.14E-02    0.17E-06
   1      6    11.387     5.964    0.41E-03    0.11E-02    0.17E-06
   1      6    11.387     5.382    0.39E-03    0.87E-03    0.15E-06

 ----------------------------------------------------------------------------- 
|                                                                             |
|  ADVICE TO THIS USER RUNNING 'VASP/VAMP'   (HEAR YOUR MASTER'S VOICE ...):  |
|                                                                             |
|      You enforced a specific xc-type in the INCAR file,                     |
|      a different type was found on the POTCAR file                          |
|          I HOPE YOU KNOW, WHAT YOU ARE  DOING                               |
|                                                                             |
 ----------------------------------------------------------------------------- 

  PAW_PBE Ir 06Sep2000                  :
 energy of atom  1       EATOM= -560.1833
 kinetic energy error for atom=    0.0018 (will be added to EATOM!!)
  PAW_PBE O 08Apr2002                   :
 energy of atom  2       EATOM= -432.3788
 kinetic energy error for atom=    0.0224 (will be added to EATOM!!)
  PAW_PBE Ir 06Sep2000                  :
 energy of atom  3       EATOM= -560.1833
 kinetic energy error for atom=    0.0018 (will be added to EATOM!!)
  PAW_PBE O 08Apr2002                   :
 energy of atom  4       EATOM= -432.3788
 kinetic energy error for atom=    0.0224 (will be added to EATOM!!)
 
 
 POSCAR: Ir  O Ir  O                             
  positions in cartesian coordinates
  No initial velocities read in
 exchange correlation table for  LEXCH =        9
   RHO(1)=    0.500       N(1)  =     2000
   RHO(2)=  100.500       N(2)  =     4000

 VTST: version 3.2, (02/03/18)

 CHAIN: initializing optimizer
 
 OPT: Using VASP Conjugate-Gradient optimizer
 CHAIN: Read ICHAIN            0
 
 POSCAR: Ir  O Ir  O                             
  positions in cartesian coordinates
  No initial velocities read in
 


--------------------------------------------------------------------------------------------------------


 ion  position               nearest neighbor table
   1  0.125  0.500  0.188-  21 2.00  29 2.00  17 2.02  25 2.02  26 2.02  18 2.02   2 3.20  52 3.20

   2  0.375  0.500  0.188-  22 2.00  30 2.00  26 2.02  18 2.02  67 2.02  75 2.02   1 3.20  51 3.20

   3  0.125  0.000  0.062-  23 2.00  31 2.00  19 2.02  27 2.02  28 2.02  20 2.02   4 3.20  54 3.20

   4  0.375  0.000  0.062-  24 2.00  32 2.00  28 2.02  20 2.02  69 2.02  77 2.02   3 3.20  53 3.20

   5  0.000  0.500  0.062-  17 2.00  23 2.02  31 2.02  74 2.02  82 2.02   6 3.20  56 3.20
   6  0.250  0.500  0.062-  18 2.00  23 2.02  24 2.02  31 2.02  32 2.02   5 3.20  55 3.20
   7  0.000  0.000  0.188-  35 1.99  27 2.00  29 2.02  21 2.02  72 2.02  80 2.02   8 3.20  58 3.20

   8  0.250  0.000  0.188-  28 2.00  36 2.00  21 2.02  29 2.02  30 2.02  22 2.02   7 3.20  57 3.20

   9  0.125  0.500  0.438-  41 1.99  42 1.99  37 2.00  45 2.00  33 2.03  34 2.03  60 3.20  10 3.20

  10  0.375  0.500  0.438-  91 1.98  42 1.99  46 2.00  38 2.00  83 2.03  34 2.03  59 3.20   9 3.20

  11  0.125  0.000  0.313-  39 1.99  47 1.99  44 2.02  36 2.02  35 2.03  43 2.03  62 3.18  12 3.20

  12  0.375  0.000  0.313-  40 1.99  48 1.99  44 2.02  36 2.02  85 2.03  92 2.03  61 3.18  11 3.20

  13  0.000  0.500  0.313-  33 1.98  25 2.00  90 2.02  97 2.02  39 2.03  47 2.03  14 3.20  64 3.20

  14  0.250  0.500  0.313-  34 1.98  26 2.00  40 2.03  48 2.03  47 2.03  39 2.03  13 3.20  63 3.20

  15  1.000  0.000  0.442-  50 1.79  88 2.03  95 2.03  45 2.03  37 2.03  43 2.10  16 3.20  66 3.21

  16  0.250  0.000  0.441-  49 1.80  46 2.03  38 2.03  37 2.03  45 2.03  44 2.09  65 3.20  15 3.20

  17  0.000  0.500  0.140-   5 2.00   1 2.02  52 2.02
  18  0.250  0.500  0.140-   6 2.00   2 2.02   1 2.02
  19  0.000  0.000  0.015-   3 2.02  54 2.02
  20  0.250  0.000  0.015-   3 2.02   4 2.02
  21  0.125  0.808  0.188-   1 2.00   7 2.02   8 2.02
  22  0.375  0.808  0.188-   2 2.00   8 2.02  57 2.02
  23  0.125  0.308  0.062-   3 2.00   5 2.02   6 2.02
  24  0.375  0.308  0.062-   4 2.00   6 2.02  55 2.02
  25  0.000  0.500  0.235-  13 2.00   1 2.02  52 2.02
  26  0.250  0.500  0.235-  14 2.00   2 2.02   1 2.02
  27  0.000  0.000  0.110-   7 2.00   3 2.02  54 2.02
  28  0.250  0.000  0.110-   8 2.00   4 2.02   3 2.02
  29  0.125  0.192  0.188-   1 2.00   7 2.02   8 2.02
  30  0.375  0.192  0.188-   2 2.00   8 2.02  57 2.02
  31  0.125  0.692  0.062-   3 2.00   5 2.02   6 2.02
  32  0.375  0.692  0.062-   4 2.00   6 2.02  55 2.02
  33  0.000  0.500  0.389-  13 1.98   9 2.03  60 2.04
  34  0.250  0.500  0.389-  14 1.98  10 2.03   9 2.03
  35  0.000  0.000  0.265-   7 1.99  62 2.01  11 2.03
  36  0.250  0.000  0.265-   8 2.00  11 2.02  12 2.02
  37  0.125  0.809  0.436-   9 2.00  15 2.03  16 2.03
  38  0.375  0.809  0.436-  10 2.00  65 2.03  16 2.03
  39  0.125  0.308  0.312-  11 1.99  13 2.03  14 2.03
  40  0.375  0.308  0.312-  12 1.99  63 2.03  14 2.03
  41  0.000  0.500  0.484-   9 1.99  60 1.99
  42  0.250  0.500  0.483-  10 1.99   9 1.99
  43  1.000  0.000  0.361-  62 2.02  11 2.03  15 2.10
  44  0.250  0.000  0.361-  12 2.02  11 2.02  16 2.09
  45  0.125  0.191  0.436-   9 2.00  15 2.03  16 2.03
  46  0.375  0.191  0.436-  10 2.00  65 2.03  16 2.03
  47  0.125  0.692  0.312-  11 1.99  13 2.03  14 2.03
  48  0.375  0.692  0.312-  12 1.99  63 2.03  14 2.03
  49  0.250  0.000  0.511-  16 1.80
  50  0.002  0.000  0.511-  15 1.79
  51  0.625  0.500  0.188-  71 2.00  79 2.00  67 2.02  75 2.02  76 2.02  68 2.02   2 3.20  52 3.20

  52  0.875  0.500  0.188-  72 2.00  80 2.00  68 2.02  17 2.02  76 2.02  25 2.02   1 3.20  51 3.20

  53  0.625  0.000  0.062-  73 2.00  81 2.00  69 2.02  77 2.02  78 2.02  70 2.02   4 3.20  54 3.20

  54  0.875  0.000  0.062-  74 2.00  82 2.00  70 2.02  19 2.02  78 2.02  27 2.02   3 3.20  53 3.20

  55  0.500  0.500  0.062-  67 2.00  32 2.02  24 2.02  73 2.02  81 2.02  56 3.20   6 3.20
  56  0.750  0.500  0.062-  68 2.00  73 2.02  74 2.02  81 2.02  82 2.02  55 3.20   5 3.20
  57  0.500  0.000  0.188-  85 1.99  77 2.00  71 2.02  22 2.02  79 2.02  30 2.02   8 3.20  58 3.20

  58  0.750  0.000  0.188-  86 1.99  78 2.00  71 2.02  79 2.02  80 2.02  72 2.02   7 3.20  57 3.20

  59  0.625  0.500  0.438-  91 1.99  87 2.00  94 2.00  84 2.04  83 2.04  10 3.20  60 3.21
  60  0.875  0.500  0.438-  41 1.99  88 2.00  95 2.00  84 2.04  33 2.04   9 3.20  59 3.21
  61  0.624  0.000  0.312-  89 1.99  96 1.99  85 2.01  92 2.02  93 2.02  86 2.04  12 3.18  62 3.24

  62  0.876  0.000  0.312-  90 1.99  97 1.99  35 2.01  43 2.02  93 2.02  86 2.04  11 3.18  61 3.24

  63  0.500  0.500  0.313-  83 1.98  75 2.00  89 2.02  96 2.02  40 2.03  48 2.03  14 3.20  64 3.20

  64  0.750  0.500  0.313-  84 1.98  76 2.01  90 2.03  97 2.03  96 2.03  89 2.03  63 3.20  13 3.20

  65  0.500  0.000  0.442-  98 1.79  94 2.03  87 2.03  46 2.03  38 2.03  92 2.10  16 3.20  66 3.21

  66  0.750  0.000  0.434-  93 1.94  87 2.02  94 2.02  88 2.02  95 2.02  65 3.21  15 3.21
  67  0.500  0.500  0.140-  55 2.00  51 2.02   2 2.02
  68  0.750  0.500  0.140-  56 2.00  52 2.02  51 2.02
  69  0.500  0.000  0.015-   4 2.02  53 2.02
  70  0.750  0.000  0.015-  53 2.02  54 2.02
  71  0.625  0.808  0.188-  51 2.00  57 2.02  58 2.02
  72  0.875  0.808  0.188-  52 2.00   7 2.02  58 2.02
  73  0.625  0.308  0.062-  53 2.00  55 2.02  56 2.02
  74  0.875  0.308  0.062-  54 2.00   5 2.02  56 2.02
  75  0.500  0.500  0.235-  63 2.00  51 2.02   2 2.02
  76  0.750  0.500  0.235-  64 2.01  52 2.02  51 2.02
  77  0.500  0.000  0.110-  57 2.00  53 2.02   4 2.02
  78  0.750  0.000  0.110-  58 2.00  54 2.02  53 2.02
  79  0.625  0.192  0.188-  51 2.00  57 2.02  58 2.02
  80  0.875  0.192  0.188-  52 2.00   7 2.02  58 2.02
  81  0.625  0.692  0.062-  53 2.00  55 2.02  56 2.02
  82  0.875  0.692  0.062-  54 2.00   5 2.02  56 2.02
  83  0.500  0.500  0.389-  63 1.98  10 2.03  59 2.04
  84  0.750  0.500  0.390-  64 1.98  60 2.04  59 2.04
  85  0.500  0.000  0.265-  57 1.99  61 2.01  12 2.03
  86  0.750  0.000  0.265-  58 1.99  61 2.04  62 2.04
  87  0.625  0.809  0.438-  59 2.00  66 2.02  65 2.03
  88  0.875  0.809  0.438-  60 2.00  66 2.02  15 2.03
  89  0.625  0.308  0.313-  61 1.99  63 2.02  64 2.03
  90  0.875  0.308  0.313-  62 1.99  13 2.02  64 2.03
  91  0.499  0.500  0.484-  10 1.98  59 1.99
  92  0.500  0.000  0.361-  61 2.02  12 2.03  65 2.10
  93  0.750  0.000  0.359-  66 1.94  62 2.02  61 2.02
  94  0.625  0.191  0.438-  59 2.00  66 2.02  65 2.03
  95  0.875  0.191  0.438-  60 2.00  66 2.02  15 2.03
  96  0.625  0.692  0.313-  61 1.99  63 2.02  64 2.03
  97  0.875  0.692  0.313-  62 1.99  13 2.02  64 2.03
  98  0.498  0.000  0.511-  65 1.79
 
  LATTYP: Found a simple orthorhombic cell.
 ALAT       =     6.4702430000
 B/A-ratio  =     1.9796060210
 C/A-ratio  =     4.0000000000
  
  Lattice vectors:
  
 A1 = (   0.0000000000,  -6.4702430000,   0.0000000000)
 A2 = ( -12.8085320000,   0.0000000000,   0.0000000000)
 A3 = (   0.0000000000,   0.0000000000, -25.8809720000)


Analysis of symmetry for initial positions (statically):
=====================================================================
 Subroutine PRICEL returns:
 Original cell was already a primitive cell.
 

 Routine SETGRP: Setting up the symmetry group for a 
 simple orthorhombic supercell.


 Subroutine GETGRP returns: Found  2 space group operations
 (whereof  2 operations were pure point group operations)
 out of a pool of  8 trial point group operations.


The static configuration has the point symmetry C_1h.


Analysis of symmetry for dynamics (positions and initial velocities):
=====================================================================
 Subroutine PRICEL returns:
 Original cell was already a primitive cell.
 

 Routine SETGRP: Setting up the symmetry group for a 
 simple orthorhombic supercell.


 Subroutine GETGRP returns: Found  2 space group operations
 (whereof  2 operations were pure point group operations)
 out of a pool of  8 trial point group operations.


The dynamic configuration has the point symmetry C_1h.


Analysis of constrained symmetry for selective dynamics:
=====================================================================
 Subroutine PRICEL returns:
 Original cell was already a primitive cell.
 

 Routine SETGRP: Setting up the symmetry group for a 
 simple orthorhombic supercell.


 Subroutine GETGRP returns: Found  2 space group operations
 (whereof  2 operations were pure point group operations)
 out of a pool of  8 trial point group operations.


The constrained configuration has the point symmetry C_1h.


Analysis of structural, dynamic, and magnetic symmetry:
=====================================================================
 Subroutine PRICEL returns:
 Original cell was already a primitive cell.
 

 Routine SETGRP: Setting up the symmetry group for a 
 simple orthorhombic supercell.


 Subroutine GETGRP returns: Found  2 space group operations
 (whereof  2 operations were pure point group operations)
 out of a pool of  8 trial point group operations.


The magnetic configuration has the point symmetry C_1h.


 Subroutine INISYM returns: Found  2 space group operations
 (whereof  2 operations are pure point group operations),
 and found     1 'primitive' translations

 
 
 KPOINTS: Automatic mesh                          

Automatic generation of k-mesh.
Space group operators:
 irot       det(A)        alpha          n_x          n_y          n_z        tau_x        tau_y        tau_z
    1     1.000000     0.000001     1.000000     0.000000     0.000000     0.000000     0.000000     0.000000
    2    -1.000000   180.000000     0.000000     1.000000     0.000000     0.000000     0.000000     0.000000
 
 Subroutine IBZKPT returns following result:
 ===========================================
 
 Found      4 irreducible k-points:
 
 Following reciprocal coordinates:
            Coordinates               Weight
  0.000000  0.000000  0.000000      1.000000
  0.333333  0.000000  0.000000      2.000000
  0.000000  0.333333  0.000000      2.000000
  0.333333  0.333333  0.000000      4.000000
 
 Following cartesian coordinates:
            Coordinates               Weight
  0.000000  0.000000  0.000000      1.000000
  0.026024  0.000000  0.000000      2.000000
  0.000000  0.051518  0.000000      2.000000
  0.026024  0.051518  0.000000      4.000000
 


--------------------------------------------------------------------------------------------------------




 Dimension of arrays:
   k-points           NKPTS =      4   k-points in BZ     NKDIM =      4   number of bands    NBANDS=    440
   number of dos      NEDOS =    301   number of ions     NIONS =     98
   non local maximal  LDIM  =      6   non local SUM 2l+1 LMDIM =     18
   total plane-waves  NPLWV = 362880
   max r-space proj   IRMAX =   2532   max aug-charges    IRDMAX=  12432
   dimension x,y,z NGX =    70 NGY =   36 NGZ =  144
   dimension x,y,z NGXF=   140 NGYF=   72 NGZF=  288
   support grid    NGXF=   140 NGYF=   72 NGZF=  288
   ions per type =              16  34  16  32
   NGX,Y,Z   is equivalent  to a cutoff of   9.09,  9.25,  9.25 a.u.
   NGXF,Y,Z  is equivalent  to a cutoff of  18.17, 18.50, 18.50 a.u.

 SYSTEM =  unknown system                          
 POSCAR =  Ir  O Ir  O                             

 Startparameter for this run:
   NWRITE =      2    write-flag & timer
   PREC   = normal    normal or accurate (medium, high low for compatibility)
   ISTART =      0    job   : 0-new  1-cont  2-samecut
   ICHARG =      2    charge: 1-file 2-atom 10-const
   ISPIN  =      2    spin polarized calculation?
   LNONCOLLINEAR =      F non collinear calculations
   LSORBIT =      F    spin-orbit coupling
   INIWAV =      1    electr: 0-lowe 1-rand  2-diag
   LASPH  =      F    aspherical Exc in radial PAW
   METAGGA=      F    non-selfconsistent MetaGGA calc.

 Electronic Relaxation 1
   ENCUT  =  500.0 eV  36.75 Ry    6.06 a.u.  23.35 11.80 47.19*2*pi/ulx,y,z
   ENINI  =  500.0     initial cutoff
   ENAUG  =  605.4 eV  augmentation charge cutoff
   NELM   =     60;   NELMIN=  4; NELMDL= -5     # of ELM steps 
   EDIFF  = 0.1E-04   stopping-criterion for ELM
   LREAL  =      T    real-space projection
   NLSPLINE    = F    spline interpolate recip. space projectors
   LCOMPAT=      F    compatible to vasp.4.4
   GGA_COMPAT  = T    GGA compatible to vasp.4.4-vasp.4.6
   LMAXPAW     = -100 max onsite density
   LMAXMIX     =    2 max onsite mixed and CHGCAR
   VOSKOWN=      0    Vosko Wilk Nusair interpolation
   ROPT   =   -0.00050  -0.00050  -0.00050  -0.00050
 Ionic relaxation
   EDIFFG = -.5E-01   stopping-criterion for IOM
   NSW    =    500    number of steps for IOM
   NBLOCK =      1;   KBLOCK =    500    inner block; outer block 
   IBRION =      2    ionic relax: 0-MD 1-quasi-New 2-CG
   NFREE  =      1    steps in history (QN), initial steepest desc. (CG)
   ISIF   =      2    stress and relaxation
   IWAVPR =     11    prediction:  0-non 1-charg 2-wave 3-comb
   ISYM   =      2    0-nonsym 1-usesym 2-fastsym
   LCORR  =      T    Harris-Foulkes like correction to forces

   POTIM  = 0.5000    time-step for ionic-motion
   TEIN   =    0.0    initial temperature
   TEBEG  =    0.0;   TEEND  =   0.0 temperature during run
   SMASS  =  -3.00    Nose mass-parameter (am)
   estimated Nose-frequenzy (Omega)   =  0.10E-29 period in steps =****** mass=  -0.375E-26a.u.
   SCALEE = 1.0000    scale energy and forces
   NPACO  =    256;   APACO  = 16.0  distance and # of slots for P.C.
   PSTRESS=    0.0 pullay stress

  Mass of Ions in am
   POMASS = 192.22 16.00192.22 16.00
  Ionic Valenz
   ZVAL   =   9.00  6.00  9.00  6.00
  Atomic Wigner-Seitz radii
   RWIGS  =  -1.00 -1.00 -1.00 -1.00
  virtual crystal weights 
   VCA    =   1.00  1.00  1.00  1.00
   NELECT =     684.0000    total number of electrons
   NUPDOWN=      -1.0000    fix difference up-down

 DOS related values:
   EMIN   =  10.00;   EMAX   =-10.00  energy-range for DOS
   EFERMI =   0.00
   ISMEAR =     0;   SIGMA  =   0.05  broadening in eV -4-tet -1-fermi 0-gaus

 Electronic relaxation 2 (details)
   IALGO  =     68    algorithm
   LDIAG  =      T    sub-space diagonalisation (order eigenvalues)
   LSUBROT=      F    optimize rotation matrix (better conditioning)
   TURBO    =      0    0=normal 1=particle mesh
   IRESTART =      0    0=no restart 2=restart with 2 vectors
   NREBOOT  =      0    no. of reboots
   NMIN     =      0    reboot dimension
   EREF     =   0.00    reference energy to select bands
   IMIX   =      4    mixing-type and parameters
     AMIX     =   0.40;   BMIX     =  1.00
     AMIX_MAG =   1.60;   BMIX_MAG =  1.00
     AMIN     =   0.10
     WC   =   100.;   INIMIX=   1;  MIXPRE=   1;  MAXMIX= -45

 Intra band minimization:
   WEIMIN = 0.0010     energy-eigenvalue tresh-hold
   EBREAK =  0.57E-08  absolut break condition
   DEPER  =   0.30     relativ break condition  

   TIME   =   0.40     timestep for ELM

  volume/ion in A,a.u.               =      21.89       147.70
  Fermi-wavevector in a.u.,A,eV,Ry     =   1.118476  2.113613 17.020734  1.250989
  Thomas-Fermi vector in A             =   2.255107
 
 Write flags
   LWAVE        =      F    write WAVECAR
   LDOWNSAMPLE  =      F    k-point downsampling of WAVECAR
   LCHARG       =      F    write CHGCAR
   LVTOT        =      F    write LOCPOT, total local potential
   LVHAR        =      F    write LOCPOT, Hartree potential only
   LELF         =      F    write electronic localiz. function (ELF)
   LORBIT       =      0    0 simple, 1 ext, 2 COOP (PROOUT), +10 PAW based schemes


 Dipole corrections
   LMONO  =      F    monopole corrections only (constant potential shift)
   LDIPOL =      T    correct potential (dipole corrections)
   IDIPOL =      3    1-x, 2-y, 3-z, 4-all directions 
   EPSILON=  1.0000000 bulk dielectric constant

 Exchange correlation treatment:
   GGA     =    RP    GGA type
   LEXCH   =     9    internal setting for exchange type
   VOSKOWN=      0    Vosko Wilk Nusair interpolation
   LHFCALC =     F    Hartree Fock is set to
   LHFONE  =     F    Hartree Fock one center treatment
   AEXX    =    0.0000 exact exchange contribution

 Linear response parameters
   LEPSILON=     F    determine dielectric tensor
   LRPA    =     F    only Hartree local field effects (RPA)
   LNABLA  =     F    use nabla operator in PAW spheres
   LVEL    =     F    velocity operator in full k-point grid
   LINTERFAST=   F  fast interpolation
   KINTER  =     0    interpolate to denser k-point grid
   CSHIFT  =0.1000    complex shift for real part using Kramers Kronig
   OMEGAMAX=  -1.0    maximum frequency
   DEG_THRESHOLD= 0.2000000E-02 threshold for treating states as degnerate
   RTIME   =   -0.100 relaxation time in fs
  (WPLASMAI=    0.000 imaginary part of plasma frequency in eV, 0.658/RTIME)
   DFIELD  = 0.0000000 0.0000000 0.0000000 field for delta impulse in time
 
 Orbital magnetization related:
   ORBITALMAG=     F  switch on orbital magnetization
   LCHIMAG   =     F  perturbation theory with respect to B field
   DQ        =  0.001000  dq finite difference perturbation B field
   LLRAUG    =     F  two centre corrections for induced B field



--------------------------------------------------------------------------------------------------------


 conjugate gradient relaxation of ions
   using selective dynamics as specified on POSCAR
   WARNING: If single coordinates had been selected the selection of coordinates
            is made according to the corresponding   d i r e c t   coordinates!
            Don't support selection of single cartesian coordinates -- sorry ...
  !
 charge density and potential will be updated during run
 spin polarized calculation
 RMM-DIIS sequential band-by-band and
  variant of blocked Davidson during initial phase
 perform sub-space diagonalisation
    before iterative eigenvector-optimisation
 modified Broyden-mixing scheme, WC =      100.0
 initial mixing is a Kerker type mixing with AMIX =  0.4000 and BMIX =      1.0000
 Hartree-type preconditioning will be used
 using additional bands           98
 real space projection scheme for non local part
 use partial core corrections
 calculate Harris-corrections to forces 
   (improved forces if not selfconsistent)
 use gradient corrections 
 use of overlap-Matrix (Vanderbilt PP)
 Gauss-broadening in eV      SIGMA  =   0.05


--------------------------------------------------------------------------------------------------------


  energy-cutoff  :      500.00
  volume of cell :     2144.87
      direct lattice vectors                 reciprocal lattice vectors
    12.808532000  0.000000000  0.000000000     0.078072959  0.000000000  0.000000000
     0.000000000  6.470243000  0.000000000     0.000000000  0.154553701  0.000000000
     0.000000000  0.000000000 25.880972000     0.000000000  0.000000000  0.038638425

  length of vectors
    12.808532000  6.470243000 25.880972000     0.078072959  0.154553701  0.038638425


 
 k-points in units of 2pi/SCALE and weight: Automatic mesh                          
   0.00000000  0.00000000  0.00000000       0.111
   0.02602432  0.00000000  0.00000000       0.222
   0.00000000  0.05151790  0.00000000       0.222
   0.02602432  0.05151790  0.00000000       0.444
 
 k-points in reciprocal lattice and weights: Automatic mesh                          
   0.00000000  0.00000000  0.00000000       0.111
   0.33333333  0.00000000  0.00000000       0.222
   0.00000000  0.33333333  0.00000000       0.222
   0.33333333  0.33333333  0.00000000       0.444
 
 position of ions in fractional coordinates (direct lattice) 
   0.12500000  0.50000000  0.18750000
   0.37500000  0.50000000  0.18750000
   0.12500000  0.00000000  0.06250000
   0.37500000  0.00000000  0.06250000
   0.00000000  0.50000000  0.06250000
   0.25000000  0.50000000  0.06250000
   0.00000000  0.00000000  0.18750000
   0.25000000  0.00000000  0.18750000
   0.12502556  0.50000000  0.43786970
   0.37499778  0.50000000  0.43785475
   0.12512550  0.00000000  0.31274608
   0.37490434  0.00000000  0.31274676
   0.00019612  0.50000000  0.31278633
   0.25001487  0.50000000  0.31279205
   0.99988716  0.00000000  0.44193929
   0.25002350  0.00000000  0.44123418
   0.00000000  0.50000000  0.13961000
   0.25000000  0.50000000  0.13961000
   0.00000000  0.00000000  0.01461000
   0.25000000  0.00000000  0.01461000
   0.12500000  0.80844000  0.18750000
   0.37500000  0.80844000  0.18750000
   0.12500000  0.30844000  0.06250000
   0.37500000  0.30844000  0.06250000
   0.00000000  0.50000000  0.23539000
   0.25000000  0.50000000  0.23539000
   0.00000000  0.00000000  0.11039000
   0.25000000  0.00000000  0.11039000
   0.12500000  0.19156000  0.18750000
   0.37500000  0.19156000  0.18750000
   0.12500000  0.69156000  0.06250000
   0.37500000  0.69156000  0.06250000
   0.00011515  0.50000000  0.38937919
   0.25001536  0.50000000  0.38936571
   0.00018448  0.00000000  0.26450989
   0.25001497  0.00000000  0.26477199
   0.12479855  0.80885966  0.43610376
   0.37523258  0.80888107  0.43608605
   0.12491836  0.30760594  0.31240167
   0.37511449  0.30761960  0.31239843
   0.00043576  0.50000000  0.48352794
   0.25002697  0.50000000  0.48332355
   0.99990211  0.00000000  0.36088158
   0.25001768  0.00000000  0.36058837
   0.12479855  0.19114034  0.43610376
   0.37523258  0.19111893  0.43608605
   0.12491836  0.69239406  0.31240167
   0.37511449  0.69238040  0.31239843
   0.24999477  0.00000000  0.51061074
   0.00207477  0.00000000  0.51128240
   0.62500000  0.50000000  0.18750000
   0.87500000  0.50000000  0.18750000
   0.62500000  0.00000000  0.06250000
   0.87500000  0.00000000  0.06250000
   0.50000000  0.50000000  0.06250000
   0.75000000  0.50000000  0.06250000
   0.50000000  0.00000000  0.18750000
   0.75000000  0.00000000  0.18750000
   0.62484849  0.50000000  0.43822934
   0.87518847  0.50000000  0.43821024
   0.62356526  0.00000000  0.31234243
   0.87646753  0.00000000  0.31233803
   0.49984711  0.50000000  0.31278849
   0.75001914  0.50000000  0.31299200
   0.50013497  0.00000000  0.44196780
   0.74999677  0.00000000  0.43394700
   0.50000000  0.50000000  0.13961000
   0.75000000  0.50000000  0.13961000
   0.50000000  0.00000000  0.01461000
   0.75000000  0.00000000  0.01461000
   0.62500000  0.80844000  0.18750000
   0.87500000  0.80844000  0.18750000
   0.62500000  0.30844000  0.06250000
   0.87500000  0.30844000  0.06250000
   0.50000000  0.50000000  0.23539000
   0.75000000  0.50000000  0.23539000
   0.50000000  0.00000000  0.11039000
   0.75000000  0.00000000  0.11039000
   0.62500000  0.19156000  0.18750000
   0.87500000  0.19156000  0.18750000
   0.62500000  0.69156000  0.06250000
   0.87500000  0.69156000  0.06250000
   0.49991195  0.50000000  0.38938558
   0.75001646  0.50000000  0.38966848
   0.49982793  0.00000000  0.26451790
   0.75000468  0.00000000  0.26454417
   0.62529360  0.80892089  0.43809901
   0.87472422  0.80897330  0.43810320
   0.62457879  0.30812319  0.31266525
   0.87545925  0.30817210  0.31266331
   0.49949300  0.50000000  0.48352120
   0.50013232  0.00000000  0.36089611
   0.75002097  0.00000000  0.35910786
   0.62529360  0.19107911  0.43809901
   0.87472422  0.19102670  0.43810320
   0.62457879  0.69187681  0.31266525
   0.87545925  0.69182790  0.31266331
   0.49782902  0.00000000  0.51130536
 
 position of ions in cartesian coordinates  (Angst):
   1.60106650  3.23512150  4.85268225
   4.80319950  3.23512150  4.85268225
   1.60106650  0.00000000  1.61756075
   4.80319950  0.00000000  1.61756075
   0.00000000  3.23512150  1.61756075
   3.20213300  3.23512150  1.61756075
   0.00000000  0.00000000  4.85268225
   3.20213300  0.00000000  4.85268225
   1.60139392  3.23512150 11.33249354
   4.80317113  3.23512150 11.33210650
   1.60267403  0.00000000  8.09417259
   4.80197428  0.00000000  8.09419002
   0.00251199  3.23512150  8.09521437
   3.20232351  3.23512150  8.09536234
  12.80708675  0.00000000 11.43781847
   3.20243397  0.00000000 11.41956937
   0.00000000  3.23512150  3.61324250
   3.20213300  3.23512150  3.61324250
   0.00000000  0.00000000  0.37812100
   3.20213300  0.00000000  0.37812100
   1.60106650  5.23080325  4.85268225
   4.80319950  5.23080325  4.85268225
   1.60106650  1.99568175  1.61756075
   4.80319950  1.99568175  1.61756075
   0.00000000  3.23512150  6.09212200
   3.20213300  3.23512150  6.09212200
   0.00000000  0.00000000  2.85700050
   3.20213300  0.00000000  2.85700050
   1.60106650  1.23943975  4.85268225
   4.80319950  1.23943975  4.85268225
   1.60106650  4.47456125  1.61756075
   4.80319950  4.47456125  1.61756075
   0.00147484  3.23512150 10.07751199
   3.20232968  3.23512150 10.07716305
   0.00236290  0.00000000  6.84577296
   3.20232480  0.00000000  6.85255639
   1.59848626  5.23351856 11.28678924
   4.80617854  5.23365706 11.28633080
   1.60002077  1.99028519  8.08525887
   4.80466592  1.99037359  8.08517515
   0.00558140  3.23512150 12.51417302
   3.20247840  3.23512150 12.50888315
  12.80727820  0.00000000  9.33996613
   3.20235949  0.00000000  9.33237752
   1.59848626  1.23672444 11.28678924
   4.80617854  1.23658594 11.28633080
   1.60002077  4.47995781  8.08525887
   4.80466592  4.47986941  8.08517515
   3.20206595  0.00000000 13.21510217
   0.02657482  0.00000000 13.23248537
   8.00533250  3.23512150  4.85268225
  11.20746550  3.23512150  4.85268225
   8.00533250  0.00000000  1.61756075
  11.20746550  0.00000000  1.61756075
   6.40426600  3.23512150  1.61756075
   9.60639900  3.23512150  1.61756075
   6.40426600  0.00000000  4.85268225
   9.60639900  0.00000000  4.85268225
   8.00339182  3.23512150 11.34180116
  11.20987947  3.23512150 11.34130702
   7.98695554  0.00000000  8.08372578
  11.22626239  0.00000000  8.08361180
   6.40230770  3.23512150  8.09527003
   9.60664410  3.23512150  8.10053713
   6.40599477  0.00000000 11.43855621
   9.60635763  0.00000000 11.23097011
   6.40426600  3.23512150  3.61324250
   9.60639900  3.23512150  3.61324250
   6.40426600  0.00000000  0.37812100
   9.60639900  0.00000000  0.37812100
   8.00533250  5.23080325  4.85268225
  11.20746550  5.23080325  4.85268225
   8.00533250  1.99568175  1.61756075
  11.20746550  1.99568175  1.61756075
   6.40426600  3.23512150  6.09212200
   9.60639900  3.23512150  6.09212200
   6.40426600  0.00000000  2.85700050
   9.60639900  0.00000000  2.85700050
   8.00533250  1.23943975  4.85268225
  11.20746550  1.23943975  4.85268225
   8.00533250  4.47456125  1.61756075
  11.20746550  4.47456125  1.61756075
   6.40313827  3.23512150 10.07767735
   9.60660981  3.23512150 10.08499902
   6.40206202  0.00000000  6.84598029
   9.60645890  0.00000000  6.84666023
   8.00909306  5.23391476 11.33842827
  11.20393315  5.23425382 11.33853664
   7.99993748  1.99363188  8.09208055
  11.21334784  1.99394838  8.09203049
   6.39777201  3.23512150 12.51399859
   6.40596082  0.00000000  9.34034201
   9.60666754  0.00000000  9.29406057
   8.00909306  1.23632824 11.33842827
  11.20393315  1.23598918 11.33853664
   7.99993748  4.47661112  8.09208055
  11.21334784  4.47629462  8.09203049
   6.37645892  0.00000000 13.23307961
 


--------------------------------------------------------------------------------------------------------


 k-point  1 :   0.0000 0.0000 0.0000  plane waves:   54455
 k-point  2 :   0.3333 0.0000 0.0000  plane waves:   54459
 k-point  3 :   0.0000 0.3333 0.0000  plane waves:   54468
 k-point  4 :   0.3333 0.3333 0.0000  plane waves:   54434

 maximum and minimum number of plane-waves per node :      5497     5417

 maximum number of plane-waves:     54468
 maximum index in each direction: 
   IXMAX=   23   IYMAX=   11   IZMAX=   47
   IXMIN=  -23   IYMIN=  -12   IZMIN=  -47


 real space projection operators:
  total allocation   :      13745.02 KBytes
  max/ min on nodes  :       1377.97       1368.33


 parallel 3D FFT for wavefunctions:
    minimum data exchange during FFTs selected (reduces bandwidth)
 parallel 3D FFT for charge:
    minimum data exchange during FFTs selected (reduces bandwidth)


 total amount of memory used by VASP MPI-rank0   129406. kBytes
=======================================================================

   base      :      30000. kBytes
   nonlr-proj:       5882. kBytes
   fftplans  :       3841. kBytes
   grid      :      10919. kBytes
   one-center:        311. kBytes
   wavefun   :      78453. kBytes
 
     INWAV:  cpu time    0.0000: real time    0.0002
 Broyden mixing: mesh for mixing (old mesh)
   NGX = 47   NGY = 23   NGZ = 95
  (NGX  =140   NGY  = 72   NGZ  =288)
  gives a total of 102695 points

 initial charge density was supplied:
 charge density of overlapping atoms calculated
 number of electron     684.0000000 magnetization      58.8000000
 keeping initial charge density in first step


--------------------------------------------------------------------------------------------------------


 Maximum index for non-local projection operator          274
 Maximum index for augmentation-charges          641 (set IRDMAX)


--------------------------------------------------------------------------------------------------------


 First call to EWALD:  gamma=   0.137
 Maximum number of real-space cells 3x 5x 2
 Maximum number of reciprocal cells 3x 2x 5

    FEWALD:  cpu time    0.0036: real time    0.0036


--------------------------------------- Iteration      1(   1)  ---------------------------------------


    POTLOK:  cpu time    0.0884: real time    0.0941
    SETDIJ:  cpu time    0.0161: real time    0.0178
     EDDAV:  cpu time   12.8281: real time   12.8767
       DOS:  cpu time    0.0025: real time    0.0030
    --------------------------------------------
      LOOP:  cpu time   12.9351: real time   12.9917

 eigenvalue-minimisations  :  7088
 total energy-change (2. order) : 0.7630215E+04  (-0.3064413E+05)
 number of electron     684.0000000 magnetization      58.8000000
 augmentation part      684.0000000 magnetization      58.8000000

 DIPCOR: dipole corrections for dipol
 direction  3 min pos   217,
 dipolmoment           0.000000      0.000000     -0.000008 electrons x Angstroem
 Tr[quadrupol]    -12685.347722

 energy correction for charged system         0.000000 eV
 dipol+quadrupol energy correction           -0.000000 eV
 added-field ion interaction          0.000055 eV  (added to PSCEN)


 Free energy of the ion-electron system (eV)
  ---------------------------------------------------
  alpha Z        PSCENC =      1780.31085167
  Ewald energy   TEWEN  =    229833.36331076
  -Hartree energ DENC   =   -275854.07988490
  -exchange      EXHF   =         0.00000000
  -V(xc)+E(xc)   XCENC  =      1256.65498293
  PAW double counting   =     40555.36544842   -39336.07891203
  entropy T*S    EENTRO =        -0.04962116
  eigenvalues    EBANDS =      2961.26396086
  atomic energy  EATOM  =     46433.46497963
  Solvation  Ediel_sol  =         0.00000000
  ---------------------------------------------------
  free energy    TOTEN  =      7630.21511619 eV

  energy without entropy =     7630.26473735  energy(sigma->0) =     7630.23992677


--------------------------------------------------------------------------------------------------------




--------------------------------------- Iteration      1(   2)  ---------------------------------------


     EDDAV:  cpu time   13.2853: real time   13.3257
       DOS:  cpu time    0.0022: real time    0.0022
    --------------------------------------------
      LOOP:  cpu time   13.2875: real time   13.3280

 eigenvalue-minimisations  :  7416
 total energy-change (2. order) :-0.7092473E+04  (-0.6512897E+04)
 number of electron     684.0000000 magnetization      58.8000000
 augmentation part      684.0000000 magnetization      58.8000000

 DIPCOR: dipole corrections for dipol
 direction  3 min pos   217,
 dipolmoment           0.000000      0.000000     -0.000008 electrons x Angstroem
 Tr[quadrupol]    -12685.347722

 energy correction for charged system         0.000000 eV
 dipol+quadrupol energy correction           -0.000000 eV
 added-field ion interaction          0.000055 eV  (added to PSCEN)


 Free energy of the ion-electron system (eV)
  ---------------------------------------------------
  alpha Z        PSCENC =      1780.31085167
  Ewald energy   TEWEN  =    229833.36331076
  -Hartree energ DENC   =   -275854.07988490
  -exchange      EXHF   =         0.00000000
  -V(xc)+E(xc)   XCENC  =      1256.65498293
  PAW double counting   =     40555.36544842   -39336.07891203
  entropy T*S    EENTRO =        -0.04747285
  eigenvalues    EBANDS =     -4131.21091433
  atomic energy  EATOM  =     46433.46497963
  Solvation  Ediel_sol  =         0.00000000
  ---------------------------------------------------
  free energy    TOTEN  =       537.74238931 eV

  energy without entropy =      537.78986216  energy(sigma->0) =      537.76612573


--------------------------------------------------------------------------------------------------------




--------------------------------------- Iteration      1(   3)  ---------------------------------------


     EDDAV:  cpu time   15.3115: real time   15.3600
       DOS:  cpu time    0.0021: real time    0.0021
    --------------------------------------------
      LOOP:  cpu time   15.3136: real time   15.3621

 eigenvalue-minimisations  :  8880
 total energy-change (2. order) :-0.1222677E+04  (-0.1166116E+04)
 number of electron     684.0000000 magnetization      58.8000000
 augmentation part      684.0000000 magnetization      58.8000000

 DIPCOR: dipole corrections for dipol
 direction  3 min pos   217,
 dipolmoment           0.000000      0.000000     -0.000008 electrons x Angstroem
 Tr[quadrupol]    -12685.347722

 energy correction for charged system         0.000000 eV
 dipol+quadrupol energy correction           -0.000000 eV
 added-field ion interaction          0.000055 eV  (added to PSCEN)


 Free energy of the ion-electron system (eV)
  ---------------------------------------------------
  alpha Z        PSCENC =      1780.31085167
  Ewald energy   TEWEN  =    229833.36331076
  -Hartree energ DENC   =   -275854.07988490
  -exchange      EXHF   =         0.00000000
  -V(xc)+E(xc)   XCENC  =      1256.65498293
  PAW double counting   =     40555.36544842   -39336.07891203
  entropy T*S    EENTRO =        -0.07259061
  eigenvalues    EBANDS =     -5353.86318773
  atomic energy  EATOM  =     46433.46497963
  Solvation  Ediel_sol  =         0.00000000
  ---------------------------------------------------
  free energy    TOTEN  =      -684.93500185 eV

  energy without entropy =     -684.86241124  energy(sigma->0) =     -684.89870655


--------------------------------------------------------------------------------------------------------




--------------------------------------- Iteration      1(   4)  ---------------------------------------


     EDDAV:  cpu time   15.4326: real time   15.4741
       DOS:  cpu time    0.0022: real time    0.0022
    --------------------------------------------
      LOOP:  cpu time   15.4348: real time   15.4763

 eigenvalue-minimisations  :  8976
 total energy-change (2. order) :-0.7207497E+02  (-0.6970842E+02)
 number of electron     684.0000000 magnetization      58.8000000
 augmentation part      684.0000000 magnetization      58.8000000

 DIPCOR: dipole corrections for dipol
 direction  3 min pos   217,
 dipolmoment           0.000000      0.000000     -0.000008 electrons x Angstroem
 Tr[quadrupol]    -12685.347722

 energy correction for charged system         0.000000 eV
 dipol+quadrupol energy correction           -0.000000 eV
 added-field ion interaction          0.000055 eV  (added to PSCEN)


 Free energy of the ion-electron system (eV)
  ---------------------------------------------------
  alpha Z        PSCENC =      1780.31085167
  Ewald energy   TEWEN  =    229833.36331076
  -Hartree energ DENC   =   -275854.07988490
  -exchange      EXHF   =         0.00000000
  -V(xc)+E(xc)   XCENC  =      1256.65498293
  PAW double counting   =     40555.36544842   -39336.07891203
  entropy T*S    EENTRO =        -0.08586545
  eigenvalues    EBANDS =     -5425.92488651
  atomic energy  EATOM  =     46433.46497963
  Solvation  Ediel_sol  =         0.00000000
  ---------------------------------------------------
  free energy    TOTEN  =      -757.00997547 eV

  energy without entropy =     -756.92411002  energy(sigma->0) =     -756.96704274


--------------------------------------------------------------------------------------------------------




--------------------------------------- Iteration      1(   5)  ---------------------------------------


     EDDAV:  cpu time   15.5856: real time   15.6471
       DOS:  cpu time    0.0020: real time    0.0020
    CHARGE:  cpu time    0.3240: real time    0.3252
    MIXING:  cpu time    0.0029: real time    0.0039
    --------------------------------------------
      LOOP:  cpu time   15.9145: real time   15.9783

 eigenvalue-minimisations  :  9048
 total energy-change (2. order) :-0.2287371E+01  (-0.2253567E+01)
 number of electron     684.0000581 magnetization      54.9751894
 augmentation part      118.6387802 magnetization      45.7675892

 DIPCOR: dipole corrections for dipol
 direction  3 min pos   217,
 dipolmoment           0.000000      0.000000     -0.000008 electrons x Angstroem
 Tr[quadrupol]    -12685.347722

 energy correction for charged system         0.000000 eV
 dipol+quadrupol energy correction           -0.000000 eV
 added-field ion interaction          0.000055 eV  (added to PSCEN)


 Broyden mixing:
  rms(total) = 0.17497E+02    rms(broyden)= 0.17496E+02
  rms(prec ) = 0.17724E+02
  weight for this iteration     100.00

 Free energy of the ion-electron system (eV)
  ---------------------------------------------------
  alpha Z        PSCENC =      1780.31085167
  Ewald energy   TEWEN  =    229833.36331076
  -Hartree energ DENC   =   -275854.07988490
  -exchange      EXHF   =         0.00000000
  -V(xc)+E(xc)   XCENC  =      1256.65498293
  PAW double counting   =     40555.36544842   -39336.07891203
  entropy T*S    EENTRO =        -0.08656547
  eigenvalues    EBANDS =     -5428.21155778
  atomic energy  EATOM  =     46433.46497963
  Solvation  Ediel_sol  =         0.00000000
  ---------------------------------------------------
  free energy    TOTEN  =      -759.29734676 eV

  energy without entropy =     -759.21078129  energy(sigma->0) =     -759.25406403


--------------------------------------------------------------------------------------------------------




--------------------------------------- Iteration      1(   6)  ---------------------------------------


    POTLOK:  cpu time    0.0811: real time    0.0831
    SETDIJ:  cpu time    0.0154: real time    0.0154
    EDDIAG:  cpu time    1.7914: real time    1.7975
  RMM-DIIS:  cpu time    4.9213: real time    4.9344
    ORTHCH:  cpu time    0.5521: real time    0.5622
       DOS:  cpu time    0.0023: real time    0.0023
    CHARGE:  cpu time    0.3208: real time    0.3216
    MIXING:  cpu time    0.0027: real time    0.0027
    --------------------------------------------
      LOOP:  cpu time    7.6869: real time    7.7192

 eigenvalue-minimisations  :  7079
 total energy-change (2. order) : 0.1072206E+03  (-0.7254412E+02)
 number of electron     684.0000536 magnetization      52.0266706
 augmentation part      129.4522893 magnetization      41.8461200

 DIPCOR: dipole corrections for dipol
 direction  3 min pos   217,
 dipolmoment           0.000000      0.000000      1.133416 electrons x Angstroem
 Tr[quadrupol]    -12671.177324

 energy correction for charged system         0.000000 eV
 dipol+quadrupol energy correction           -0.054198 eV
 added-field ion interaction         -8.278023 eV  (added to PSCEN)


 Broyden mixing:
  rms(total) = 0.12037E+02    rms(broyden)= 0.12034E+02
  rms(prec ) = 0.13079E+02
  weight for this iteration     100.00

 eigenvalues of (default mixing * dielectric matrix)
  average eigenvalue GAMMA=   0.8894
  0.8894

 Free energy of the ion-electron system (eV)
  ---------------------------------------------------
  alpha Z        PSCENC =      1771.97857514
  Ewald energy   TEWEN  =    229833.36331076
  -Hartree energ DENC   =   -276082.43463904
  -exchange      EXHF   =         0.00000000
  -V(xc)+E(xc)   XCENC  =      1336.17252122
  PAW double counting   =     48480.80246494   -47326.37384314
  entropy T*S    EENTRO =        -0.07151822
  eigenvalues    EBANDS =     -5098.97856231
  atomic energy  EATOM  =     46433.46497963
  Solvation  Ediel_sol  =         0.00000000
  ---------------------------------------------------
  free energy    TOTEN  =      -652.07671103 eV

  energy without entropy =     -652.00519281  energy(sigma->0) =     -652.04095192


--------------------------------------------------------------------------------------------------------




--------------------------------------- Iteration      1(   7)  ---------------------------------------


    POTLOK:  cpu time    0.0812: real time    0.0833
    SETDIJ:  cpu time    0.0153: real time    0.0154
    EDDIAG:  cpu time    1.7896: real time    1.7946
  RMM-DIIS:  cpu time    5.6844: real time    5.6997
    ORTHCH:  cpu time    0.5548: real time    0.5562
       DOS:  cpu time    0.0020: real time    0.0020
    CHARGE:  cpu time    0.3165: real time    0.3174
    MIXING:  cpu time    0.0026: real time    0.0026
    --------------------------------------------
      LOOP:  cpu time    8.4464: real time    8.4711

 eigenvalue-minimisations  :  8265
 total energy-change (2. order) :-0.1427324E+04  (-0.9961856E+02)
 number of electron     684.0000475 magnetization      51.9736707
 augmentation part      127.6870972 magnetization      45.1388100

 DIPCOR: dipole corrections for dipol
 direction  3 min pos   217,
 dipolmoment           0.000000      0.000000    -12.394506 electrons x Angstroem
 Tr[quadrupol]    -12715.455714

 energy correction for charged system         0.000000 eV
 dipol+quadrupol energy correction           -6.481332 eV
 added-field ion interaction         90.524547 eV  (added to PSCEN)


 Broyden mixing:
  rms(total) = 0.40620E+02    rms(broyden)= 0.40619E+02
  rms(prec ) = 0.46738E+02
  weight for this iteration     100.00

 eigenvalues of (default mixing * dielectric matrix)
  average eigenvalue GAMMA=   0.4390
  0.8318  0.0462

 Free energy of the ion-electron system (eV)
  ---------------------------------------------------
  alpha Z        PSCENC =      1864.35401193
  Ewald energy   TEWEN  =    229833.36331076
  -Hartree energ DENC   =   -276911.42745462
  -exchange      EXHF   =         0.00000000
  -V(xc)+E(xc)   XCENC  =      1312.03785585
  PAW double counting   =     53201.76831469   -52052.57037971
  entropy T*S    EENTRO =        -0.04004333
  eigenvalues    EBANDS =     -5760.35172585
  atomic energy  EATOM  =     46433.46497963
  Solvation  Ediel_sol  =         0.00000000
  ---------------------------------------------------
  free energy    TOTEN  =     -2079.40113063 eV

  energy without entropy =    -2079.36108731  energy(sigma->0) =    -2079.38110897


--------------------------------------------------------------------------------------------------------




--------------------------------------- Iteration      1(   8)  ---------------------------------------


    POTLOK:  cpu time    0.0815: real time    0.0887
    SETDIJ:  cpu time    0.0151: real time    0.0152
    EDDIAG:  cpu time    1.7874: real time    1.7941
  RMM-DIIS:  cpu time    6.2363: real time    6.2534
    ORTHCH:  cpu time    0.5538: real time    0.5553
       DOS:  cpu time    0.0020: real time    0.0020
    CHARGE:  cpu time    0.3181: real time    0.3189
    MIXING:  cpu time    0.0027: real time    0.0027
    --------------------------------------------
      LOOP:  cpu time    8.9970: real time    9.0303

 eigenvalue-minimisations  :  9047
 total energy-change (2. order) : 0.4346945E+02  (-0.2733208E+02)
 number of electron     684.0000463 magnetization      51.2879551
 augmentation part      125.9698683 magnetization      44.7912610

 DIPCOR: dipole corrections for dipol
 direction  3 min pos   217,
 dipolmoment           0.000000      0.000000    -12.006425 electrons x Angstroem
 Tr[quadrupol]    -12716.438693

 energy correction for charged system         0.000000 eV
 dipol+quadrupol energy correction           -6.081816 eV
 added-field ion interaction         87.690164 eV  (added to PSCEN)


 Broyden mixing:
  rms(total) = 0.37709E+02    rms(broyden)= 0.37709E+02
  rms(prec ) = 0.44359E+02
  weight for this iteration     100.00

 eigenvalues of (default mixing * dielectric matrix)
  average eigenvalue GAMMA=   0.3656
  0.8763  0.1102  0.1102

 Free energy of the ion-electron system (eV)
  ---------------------------------------------------
  alpha Z        PSCENC =      1861.91914390
  Ewald energy   TEWEN  =    229833.36331076
  -Hartree energ DENC   =   -276924.72724007
  -exchange      EXHF   =         0.00000000
  -V(xc)+E(xc)   XCENC  =      1312.11195477
  PAW double counting   =     53383.20102614   -52232.63761523
  entropy T*S    EENTRO =        -0.05607443
  eigenvalues    EBANDS =     -5702.57116238
  atomic energy  EATOM  =     46433.46497963
  Solvation  Ediel_sol  =         0.00000000
  ---------------------------------------------------
  free energy    TOTEN  =     -2035.93167691 eV

  energy without entropy =    -2035.87560248  energy(sigma->0) =    -2035.90363970


--------------------------------------------------------------------------------------------------------




--------------------------------------- Iteration      1(   9)  ---------------------------------------


    POTLOK:  cpu time    0.0801: real time    0.0806
    SETDIJ:  cpu time    0.0151: real time    0.0152
    EDDIAG:  cpu time    1.7882: real time    1.7931
  RMM-DIIS:  cpu time    4.8901: real time    4.9041
    ORTHCH:  cpu time    0.5530: real time    0.5545
       DOS:  cpu time    0.0022: real time    0.0022
    CHARGE:  cpu time    0.3217: real time    0.3225
    MIXING:  cpu time    0.0031: real time    0.0031
    --------------------------------------------
      LOOP:  cpu time    7.6535: real time    7.6753

 eigenvalue-minimisations  :  7082
 total energy-change (2. order) : 0.1296481E+04  (-0.2953222E+02)
 number of electron     684.0000548 magnetization      50.9445621
 augmentation part      123.4147406 magnetization      42.3933578

 DIPCOR: dipole corrections for dipol
 direction  3 min pos   217,
 dipolmoment           0.000000      0.000000      4.568634 electrons x Angstroem
 Tr[quadrupol]    -12662.609797

 energy correction for charged system         0.000000 eV
 dipol+quadrupol energy correction           -0.880600 eV
 added-field ion interaction        -33.367485 eV  (added to PSCEN)


 Broyden mixing:
  rms(total) = 0.18255E+02    rms(broyden)= 0.18252E+02
  rms(prec ) = 0.21070E+02
  weight for this iteration     100.00

 eigenvalues of (default mixing * dielectric matrix)
  average eigenvalue GAMMA=   0.2856
  0.8972  0.1074  0.1074  0.0302

 Free energy of the ion-electron system (eV)
  ---------------------------------------------------
  alpha Z        PSCENC =      1746.06271133
  Ewald energy   TEWEN  =    229833.36331076
  -Hartree energ DENC   =   -275899.77826123
  -exchange      EXHF   =         0.00000000
  -V(xc)+E(xc)   XCENC  =      1318.61580580
  PAW double counting   =     52678.98021779   -51533.43327755
  entropy T*S    EENTRO =        -0.06143003
  eigenvalues    EBANDS =     -5316.66441277
  atomic energy  EATOM  =     46433.46497963
  Solvation  Ediel_sol  =         0.00000000
  ---------------------------------------------------
  free energy    TOTEN  =      -739.45035627 eV

  energy without entropy =     -739.38892624  energy(sigma->0) =     -739.41964126


--------------------------------------------------------------------------------------------------------




--------------------------------------- Iteration      1(  10)  ---------------------------------------


    POTLOK:  cpu time    0.0803: real time    0.0807
    SETDIJ:  cpu time    0.0150: real time    0.0151
    EDDIAG:  cpu time    1.7863: real time    1.7913
  RMM-DIIS:  cpu time    4.9996: real time    5.0129
    ORTHCH:  cpu time    0.5532: real time    0.5546
       DOS:  cpu time    0.0022: real time    0.0022
    CHARGE:  cpu time    0.3213: real time    0.3222
    MIXING:  cpu time    0.0032: real time    0.0032
    --------------------------------------------
      LOOP:  cpu time    7.7612: real time    7.7821

 eigenvalue-minimisations  :  7221
 total energy-change (2. order) : 0.2547870E+02  (-0.2096876E+01)
 number of electron     684.0000559 magnetization      49.1878304
 augmentation part      123.6325020 magnetization      37.9856956

 DIPCOR: dipole corrections for dipol
 direction  3 min pos   217,
 dipolmoment           0.000000      0.000000      4.583206 electrons x Angstroem
 Tr[quadrupol]    -12658.939902

 energy correction for charged system         0.000000 eV
 dipol+quadrupol energy correction           -0.886226 eV
 added-field ion interaction        -33.473920 eV  (added to PSCEN)


 Broyden mixing:
  rms(total) = 0.16449E+02    rms(broyden)= 0.16449E+02
  rms(prec ) = 0.19103E+02
  weight for this iteration     100.00

 eigenvalues of (default mixing * dielectric matrix)
  average eigenvalue GAMMA=   0.3481
  0.9746  0.2866  0.2866  0.0965  0.0965

 Free energy of the ion-electron system (eV)
  ---------------------------------------------------
  alpha Z        PSCENC =      1745.95065048
  Ewald energy   TEWEN  =    229833.36331076
  -Hartree energ DENC   =   -275831.21810644
  -exchange      EXHF   =         0.00000000
  -V(xc)+E(xc)   XCENC  =      1318.67673802
  PAW double counting   =     53104.76277697   -51961.16863594
  entropy T*S    EENTRO =        -0.07118448
  eigenvalues    EBANDS =     -5357.73218846
  atomic energy  EATOM  =     46433.46497963
  Solvation  Ediel_sol  =         0.00000000
  ---------------------------------------------------
  free energy    TOTEN  =      -713.97165944 eV

  energy without entropy =     -713.90047497  energy(sigma->0) =     -713.93606720


--------------------------------------------------------------------------------------------------------




--------------------------------------- Iteration      1(  11)  ---------------------------------------


    POTLOK:  cpu time    0.0805: real time    0.0809
    SETDIJ:  cpu time    0.0153: real time    0.0153
    EDDIAG:  cpu time    1.7931: real time    1.7979
  RMM-DIIS:  cpu time    4.9259: real time    4.9397
    ORTHCH:  cpu time    0.5548: real time    0.5562
       DOS:  cpu time    0.0022: real time    0.0023
    CHARGE:  cpu time    0.3207: real time    0.3216
    MIXING:  cpu time    0.0032: real time    0.0032
    --------------------------------------------
      LOOP:  cpu time    7.6957: real time    7.7171

 eigenvalue-minimisations  :  7097
 total energy-change (2. order) :-0.4367855E+02  (-0.4674378E+01)
 number of electron     684.0000562 magnetization      45.3537477
 augmentation part      124.3971343 magnetization      36.7555809

 DIPCOR: dipole corrections for dipol
 direction  3 min pos   217,
 dipolmoment           0.000000      0.000000      6.252144 electrons x Angstroem
 Tr[quadrupol]    -12641.322264

 energy correction for charged system         0.000000 eV
 dipol+quadrupol energy correction           -1.649164 eV
 added-field ion interaction        -45.663179 eV  (added to PSCEN)


 Broyden mixing:
  rms(total) = 0.15613E+02    rms(broyden)= 0.15613E+02
  rms(prec ) = 0.18464E+02
  weight for this iteration     100.00

 eigenvalues of (default mixing * dielectric matrix)
  average eigenvalue GAMMA=   0.5907
  1.8958  0.6666  0.5583  0.2304  0.0966  0.0966

 Free energy of the ion-electron system (eV)
  ---------------------------------------------------
  alpha Z        PSCENC =      1732.99845380
  Ewald energy   TEWEN  =    229833.36331076
  -Hartree energ DENC   =   -275513.11029160
  -exchange      EXHF   =         0.00000000
  -V(xc)+E(xc)   XCENC  =      1315.26406572
  PAW double counting   =     55933.71293773   -54801.73996414
  entropy T*S    EENTRO =        -0.05820880
  eigenvalues    EBANDS =     -5691.54549677
  atomic energy  EATOM  =     46433.46497963
  Solvation  Ediel_sol  =         0.00000000
  ---------------------------------------------------
  free energy    TOTEN  =      -757.65021367 eV

  energy without entropy =     -757.59200487  energy(sigma->0) =     -757.62110927


--------------------------------------------------------------------------------------------------------




--------------------------------------- Iteration      1(  12)  ---------------------------------------


    POTLOK:  cpu time    0.0803: real time    0.0815
    SETDIJ:  cpu time    0.0151: real time    0.0152
    EDDIAG:  cpu time    1.7933: real time    1.7980
  RMM-DIIS:  cpu time    4.9508: real time    4.9648
    ORTHCH:  cpu time    0.5549: real time    0.5564
       DOS:  cpu time    0.0021: real time    0.0021
    CHARGE:  cpu time    0.3200: real time    0.3208
    MIXING:  cpu time    0.0035: real time    0.0035
    --------------------------------------------
      LOOP:  cpu time    7.7200: real time    7.7423

 eigenvalue-minimisations  :  7041
 total energy-change (2. order) : 0.6793487E+02  (-0.5026025E+01)
 number of electron     684.0000557 magnetization      43.9282153
 augmentation part      124.3176832 magnetization      33.7689718

 DIPCOR: dipole corrections for dipol
 direction  3 min pos   217,
 dipolmoment           0.000000      0.000000      7.657994 electrons x Angstroem
 Tr[quadrupol]    -12597.655283

 energy correction for charged system         0.000000 eV
 dipol+quadrupol energy correction           -2.474206 eV
 added-field ion interaction        -55.930945 eV  (added to PSCEN)


 Broyden mixing:
  rms(total) = 0.97790E+01    rms(broyden)= 0.97784E+01
  rms(prec ) = 0.12133E+02
  weight for this iteration     100.00

 eigenvalues of (default mixing * dielectric matrix)
  average eigenvalue GAMMA=   0.5823
  2.2411  0.6823  0.0965  0.0965  0.3610  0.3610  0.2376

 Free energy of the ion-electron system (eV)
  ---------------------------------------------------
  alpha Z        PSCENC =      1721.90564567
  Ewald energy   TEWEN  =    229833.36331076
  -Hartree energ DENC   =   -274656.49374553
  -exchange      EXHF   =         0.00000000
  -V(xc)+E(xc)   XCENC  =      1312.09514944
  PAW double counting   =     61565.24995284   -60452.69239317
  entropy T*S    EENTRO =        -0.04449550
  eigenvalues    EBANDS =     -6446.56375052
  atomic energy  EATOM  =     46433.46497963
  Solvation  Ediel_sol  =         0.00000000
  ---------------------------------------------------
  free energy    TOTEN  =      -689.71534637 eV

  energy without entropy =     -689.67085088  energy(sigma->0) =     -689.69309862


--------------------------------------------------------------------------------------------------------




--------------------------------------- Iteration      1(  13)  ---------------------------------------


    POTLOK:  cpu time    0.0803: real time    0.0807
    SETDIJ:  cpu time    0.0152: real time    0.0153
    EDDIAG:  cpu time    1.7906: real time    1.7955
  RMM-DIIS:  cpu time    4.9495: real time    4.9828
    ORTHCH:  cpu time    0.5545: real time    0.5560
       DOS:  cpu time    0.0023: real time    0.0023
    CHARGE:  cpu time    0.3221: real time    0.3229
    MIXING:  cpu time    0.0037: real time    0.0037
    --------------------------------------------
      LOOP:  cpu time    7.7181: real time    7.7592

 eigenvalue-minimisations  :  7041
 total energy-change (2. order) : 0.6437163E+02  (-0.2879379E+01)
 number of electron     684.0000544 magnetization      44.2515769
 augmentation part      124.0417440 magnetization      36.6370517

 DIPCOR: dipole corrections for dipol
 direction  3 min pos   217,
 dipolmoment           0.000000      0.000000      6.155816 electrons x Angstroem
 Tr[quadrupol]    -12599.945187

 energy correction for charged system         0.000000 eV
 dipol+quadrupol energy correction           -1.598737 eV
 added-field ion interaction        -44.959635 eV  (added to PSCEN)


 Broyden mixing:
  rms(total) = 0.97473E+01    rms(broyden)= 0.97456E+01
  rms(prec ) = 0.10206E+02
  weight for this iteration     100.00

 eigenvalues of (default mixing * dielectric matrix)
  average eigenvalue GAMMA=   0.5103
  1.9613  0.5203  0.5203  0.3437  0.3437  0.0965  0.0965  0.1999

 Free energy of the ion-electron system (eV)
  ---------------------------------------------------
  alpha Z        PSCENC =      1733.75242381
  Ewald energy   TEWEN  =    229833.36331076
  -Hartree energ DENC   =   -274787.94223167
  -exchange      EXHF   =         0.00000000
  -V(xc)+E(xc)   XCENC  =      1311.67669155
  PAW double counting   =     62591.80499748   -61485.14212973
  entropy T*S    EENTRO =        -0.07756424
  eigenvalues    EBANDS =     -6256.24419646
  atomic energy  EATOM  =     46433.46497963
  Solvation  Ediel_sol  =         0.00000000
  ---------------------------------------------------
  free energy    TOTEN  =      -625.34371885 eV

  energy without entropy =     -625.26615461  energy(sigma->0) =     -625.30493673


--------------------------------------------------------------------------------------------------------




--------------------------------------- Iteration      1(  14)  ---------------------------------------


    POTLOK:  cpu time    0.0801: real time    0.0806
[...]
   -.774E+00 0.356E+01 0.166E+04   0.772E+00 -.172E+01 -.166E+04   0.561E-01 -.179E+01 -.522E+00   -.237E-02 0.888E-03 0.908E-03
   0.513E+02 -.246E-12 -.112E+04   -.505E+02 0.174E-13 0.112E+04   -.794E+00 0.000E+00 -.120E+01   0.365E-01 0.157E-12 0.395E-01
   -.691E-01 0.694E-12 -.110E+04   0.604E-01 -.145E-16 0.110E+04   -.454E-02 0.000E+00 -.742E+00   0.190E-01 -.223E-12 0.396E-01
   0.962E+01 0.105E-12 -.587E+02   -.843E+01 0.249E-13 0.563E+02   -.121E+01 0.000E+00 0.244E+01   0.315E-01 0.492E-12 0.322E-01
   -.360E-01 0.771E-12 -.505E+02   0.948E-02 0.458E-14 0.486E+02   0.201E-03 0.000E+00 0.185E+01   0.259E-01 -.397E-13 0.340E-01
   0.298E+02 0.401E+02 -.151E+04   -.299E+02 -.423E+02 0.151E+04   0.101E+00 0.219E+01 0.355E+01   0.250E-01 -.100E-01 0.127E-01
   -.298E+02 0.401E+02 -.151E+04   0.299E+02 -.423E+02 0.151E+04   -.927E-01 0.219E+01 0.356E+01   -.988E-02 -.153E-01 0.351E-02
   0.113E+02 0.333E+02 -.486E+03   -.112E+02 -.349E+02 0.485E+03   -.781E-01 0.165E+01 0.662E+00   0.355E-01 -.631E-02 0.359E-01
   -.113E+02 0.333E+02 -.486E+03   0.113E+02 -.349E+02 0.485E+03   0.828E-01 0.165E+01 0.673E+00   -.569E-02 -.112E-01 0.306E-01
   0.747E+02 -.281E-12 -.199E+04   -.744E+02 -.143E-14 0.202E+04   -.321E+00 0.000E+00 -.292E+02   0.298E-01 0.115E-12 0.547E-03
   0.620E-02 0.204E-11 -.199E+04   -.166E-01 0.158E-13 0.201E+04   -.128E-02 0.000E+00 -.293E+02   0.127E-01 -.291E-12 -.216E-01
   0.314E+02 0.914E-12 -.963E+03   -.306E+02 0.365E-14 0.970E+03   -.814E+00 0.000E+00 -.726E+01   0.327E-01 -.358E-13 0.361E-01
   -.151E-01 -.799E-12 -.936E+03   -.459E-02 0.307E-14 0.943E+03   -.236E-02 0.000E+00 -.733E+01   0.218E-01 0.181E-12 0.221E-01
   0.298E+02 -.401E+02 -.151E+04   -.299E+02 0.423E+02 0.151E+04   0.101E+00 -.219E+01 0.355E+01   0.250E-01 0.100E-01 0.127E-01
   -.298E+02 -.401E+02 -.151E+04   0.299E+02 0.423E+02 0.151E+04   -.927E-01 -.219E+01 0.356E+01   -.988E-02 0.153E-01 0.351E-02
   0.113E+02 -.333E+02 -.486E+03   -.112E+02 0.349E+02 0.485E+03   -.781E-01 -.165E+01 0.662E+00   0.355E-01 0.631E-02 0.359E-01
   -.113E+02 -.333E+02 -.486E+03   0.113E+02 0.349E+02 0.485E+03   0.828E-01 -.165E+01 0.673E+00   -.569E-02 0.112E-01 0.306E-01
   0.124E-01 0.351E-12 -.204E+04   -.145E-01 -.719E-14 0.207E+04   -.264E-02 0.000E+00 -.321E+02   0.585E-02 0.243E-12 -.187E-01
   0.758E+02 -.105E-12 -.203E+04   -.751E+02 0.145E-13 0.207E+04   -.715E+00 0.000E+00 -.316E+02   0.155E-01 -.210E-12 -.393E-02
   -.575E+01 0.698E-12 0.859E+03   0.589E+01 -.781E-13 -.859E+03   -.350E-01 0.000E+00 -.640E+00   -.542E-01 0.281E-12 0.221E-01
   0.583E+01 -.960E-12 0.859E+03   -.592E+01 -.888E-13 -.859E+03   0.350E-01 0.000E+00 -.640E+00   0.593E-02 -.115E-11 0.182E-01
   -.111E+01 -.427E-12 0.243E+04   0.117E+01 -.880E-13 -.243E+04   -.952E-02 0.000E+00 0.144E+01   -.424E-01 -.486E-12 -.117E-01
   0.115E+01 0.399E-12 0.243E+04   -.118E+01 -.580E-13 -.243E+04   0.949E-02 0.000E+00 0.144E+01   0.103E-01 -.672E-12 -.231E-01
   -.163E+01 -.185E-11 0.258E+04   0.167E+01 0.477E-14 -.258E+04   -.188E-01 0.000E+00 -.252E+01   -.307E-01 0.330E-12 -.469E-02
   0.268E-01 -.217E-11 0.258E+04   -.470E-02 0.710E-13 -.258E+04   0.307E-04 0.000E+00 -.236E+01   -.224E-01 0.154E-11 -.235E-01
   -.680E+01 0.188E-12 0.859E+03   0.684E+01 0.889E-14 -.859E+03   0.556E-01 0.000E+00 0.186E+00   -.436E-01 -.197E-12 0.302E-01
   0.620E-01 0.133E-11 0.852E+03   -.302E-01 -.159E-13 -.853E+03   0.260E-03 0.000E+00 0.836E-02   -.323E-01 0.631E-12 0.274E-01
   -.190E+03 0.590E-12 -.243E+04   0.188E+03 0.224E-13 0.243E+04   0.200E+01 0.000E+00 -.116E+00   -.467E-01 0.644E-12 0.217E-01
   0.190E+03 -.358E-11 -.243E+04   -.188E+03 -.365E-13 0.243E+04   -.200E+01 0.000E+00 -.117E+00   0.233E-01 0.949E-13 0.333E-01
   -.227E+02 -.953E-13 -.773E+03   0.222E+02 -.229E-13 0.773E+03   0.579E+00 0.000E+00 0.228E+00   -.524E-01 0.323E-12 0.369E-01
   0.228E+02 0.191E-12 -.773E+03   -.223E+02 0.284E-13 0.772E+03   -.582E+00 0.000E+00 0.228E+00   0.839E-02 0.627E-12 0.459E-01
   -.304E+02 -.195E-11 -.748E+03   0.304E+02 0.118E-13 0.748E+03   0.131E+00 0.000E+00 -.114E+00   -.461E-01 0.186E-12 0.440E-01
   0.954E-01 -.248E-11 -.796E+03   -.700E-01 -.450E-15 0.796E+03   -.404E-02 0.000E+00 -.998E-01   -.291E-01 -.540E-12 0.441E-01
   -.988E+02 0.149E-11 -.232E+04   0.986E+02 0.206E-14 0.232E+04   0.234E+00 0.000E+00 -.207E+01   -.412E-01 -.491E-13 0.817E-02
   0.143E-01 -.439E-13 -.245E+04   0.166E-02 -.131E-13 0.245E+04   -.233E-02 0.000E+00 0.344E+01   -.149E-01 -.328E-12 0.279E-01
   -.267E+01 -.394E-11 0.103E+04   0.273E+01 -.207E-13 -.103E+04   -.349E-01 0.000E+00 -.150E+01   -.309E-01 -.121E-12 0.226E-02
   0.319E-01 0.195E-11 0.103E+04   -.958E-02 -.138E-13 -.103E+04   0.644E-03 0.000E+00 -.101E+01   -.231E-01 0.845E-12 -.480E-02
   -.737E+00 -.126E-11 0.202E+04   0.756E+00 -.982E-15 -.205E+04   -.222E-01 0.000E+00 0.278E+02   -.200E-01 0.429E-13 -.284E-02
   0.145E-01 -.325E-12 0.202E+04   -.161E-02 0.109E-13 -.205E+04   0.234E-05 0.000E+00 0.277E+02   -.132E-01 -.533E-12 -.237E-01
   -.351E+01 0.344E+02 0.571E+03   0.358E+01 -.361E+02 -.571E+03   -.865E-01 0.165E+01 0.239E-01   -.380E-01 0.571E-02 0.172E-01
   0.356E+01 0.344E+02 0.571E+03   -.360E+01 -.361E+02 -.571E+03   0.875E-01 0.165E+01 0.244E-01   0.550E-02 0.962E-02 0.142E-01
   -.729E+00 -.358E+01 0.166E+04   0.792E+00 0.174E+01 -.166E+04   -.776E-01 0.178E+01 -.519E+00   -.300E-01 0.375E-02 -.882E-02
   0.755E+00 -.358E+01 0.166E+04   -.796E+00 0.174E+01 -.166E+04   0.780E-01 0.178E+01 -.519E+00   0.696E-02 0.523E-02 -.167E-01
   -.944E+01 -.536E-12 0.130E+03   0.955E+01 0.133E-13 -.128E+03   -.111E+00 0.000E+00 -.200E+01   -.335E-01 0.545E-12 0.260E-01
   0.795E-01 -.296E-11 0.117E+03   -.573E-01 -.283E-13 -.114E+03   0.361E-02 0.000E+00 -.259E+01   -.253E-01 -.105E-11 0.301E-01
   -.181E+01 0.914E-12 0.120E+04   0.184E+01 0.140E-13 -.120E+04   -.193E-01 0.000E+00 0.313E+00   -.282E-01 0.199E-12 0.464E-02
   0.253E-01 0.501E-12 0.119E+04   -.604E-02 0.334E-14 -.119E+04   0.129E-03 0.000E+00 0.145E+00   -.197E-01 -.538E-12 -.453E-02
   -.351E+01 -.344E+02 0.571E+03   0.358E+01 0.361E+02 -.571E+03   -.865E-01 -.165E+01 0.239E-01   -.380E-01 -.571E-02 0.172E-01
   0.356E+01 -.344E+02 0.571E+03   -.360E+01 0.361E+02 -.571E+03   0.875E-01 -.165E+01 0.244E-01   0.550E-02 -.962E-02 0.142E-01
   -.729E+00 0.358E+01 0.166E+04   0.792E+00 -.174E+01 -.166E+04   -.776E-01 -.178E+01 -.519E+00   -.300E-01 -.375E-02 -.882E-02
   0.755E+00 0.358E+01 0.166E+04   -.796E+00 -.174E+01 -.166E+04   0.780E-01 -.178E+01 -.519E+00   0.696E-02 -.523E-02 -.167E-01
   -.512E+02 0.396E-12 -.112E+04   0.504E+02 0.146E-14 0.112E+04   0.807E+00 0.000E+00 -.118E+01   -.412E-01 0.386E-13 0.269E-01
   0.138E+00 0.145E-11 -.122E+04   -.150E+00 -.114E-13 0.122E+04   0.231E-01 0.000E+00 0.678E+00   -.132E-01 -.145E-12 0.285E-01
   -.969E+01 0.529E-12 -.588E+02   0.851E+01 -.394E-13 0.563E+02   0.121E+01 0.000E+00 0.244E+01   -.326E-01 -.398E-12 0.317E-01
   0.357E-01 0.606E-12 -.701E+02   -.372E-02 -.143E-13 0.692E+02   -.118E-01 0.000E+00 0.968E+00   -.247E-01 0.848E-12 0.322E-01
   -.830E+02 0.466E+02 -.162E+04   0.833E+02 -.486E+02 0.162E+04   -.292E+00 0.197E+01 -.327E+01   -.317E-01 0.331E-03 0.122E-01
   0.830E+02 0.466E+02 -.162E+04   -.833E+02 -.486E+02 0.162E+04   0.289E+00 0.197E+01 -.327E+01   0.168E-01 0.138E-03 0.204E-01
   -.178E+02 0.309E+02 -.521E+03   0.183E+02 -.326E+02 0.522E+03   -.400E+00 0.169E+01 -.260E+00   -.369E-01 -.725E-02 0.268E-01
   0.179E+02 0.309E+02 -.521E+03   -.183E+02 -.326E+02 0.521E+03   0.395E+00 0.170E+01 -.237E+00   0.728E-02 -.281E-02 0.331E-01
   -.747E+02 -.271E-11 -.199E+04   0.744E+02 -.130E-13 0.202E+04   0.326E+00 0.000E+00 -.292E+02   -.355E-01 0.243E-12 -.121E-01
   -.313E+02 -.615E-13 -.963E+03   0.305E+02 -.102E-16 0.970E+03   0.819E+00 0.000E+00 -.725E+01   -.346E-01 0.230E-12 0.180E-01
   0.262E-01 -.352E-13 -.966E+03   -.214E-02 -.179E-13 0.962E+03   -.312E-02 0.000E+00 0.395E+01   -.201E-01 0.270E-12 0.225E-01
   -.830E+02 -.466E+02 -.162E+04   0.833E+02 0.486E+02 0.162E+04   -.292E+00 -.197E+01 -.327E+01   -.317E-01 -.331E-03 0.122E-01
   0.830E+02 -.466E+02 -.162E+04   -.833E+02 0.486E+02 0.162E+04   0.289E+00 -.197E+01 -.327E+01   0.168E-01 -.138E-03 0.204E-01
   -.178E+02 -.309E+02 -.521E+03   0.183E+02 0.326E+02 0.522E+03   -.400E+00 -.169E+01 -.260E+00   -.369E-01 0.725E-02 0.268E-01
   0.179E+02 -.309E+02 -.521E+03   -.183E+02 0.326E+02 0.521E+03   0.395E+00 -.170E+01 -.237E+00   0.728E-02 0.281E-02 0.331E-01
   -.757E+02 0.221E-11 -.203E+04   0.750E+02 0.157E-13 0.207E+04   0.733E+00 0.000E+00 -.316E+02   -.163E-01 -.389E-12 -.135E-01
 -----------------------------------------------------------------------------------------------
   -.681E-01 0.532E-12 0.112E+03   0.497E-12 0.584E-13 0.682E-11   0.586E-01 -.155E-14 -.114E+03   0.140E-01 0.107E-11 0.140E+01
 
 
 POSITION                                       TOTAL-FORCE (eV/Angst)
 -----------------------------------------------------------------------------------
      1.60107      3.23512      4.85268        -0.004623      0.000000     -0.298929
      4.80320      3.23512      4.85268         0.004423      0.000000     -0.298635
      1.60107      0.00000      1.61756        -0.013085      0.000000     -0.913479
      4.80320      0.00000      1.61756         0.013507      0.000000     -0.913767
      0.00000      3.23512      1.61756         0.010877      0.000000      1.572568
      3.20213      3.23512      1.61756         0.000100      0.000000      1.595726
      0.00000      0.00000      4.85268        -0.057282      0.000000     -0.169581
      3.20213      0.00000      4.85268         0.001909      0.000000     -0.112107
      1.60765      3.23512     11.32063        -0.018473      0.000000     -0.000156
      4.79697      3.23512     11.32049         0.009483      0.000000     -0.000154
      1.60246     -0.00000      8.09704        -0.013693      0.000000      0.012863
      4.80223     -0.00000      8.09709         0.020212      0.000000      0.014111
      0.00026      3.23512      8.08789        -0.035859      0.000000      0.009406
      3.20228      3.23512      8.08368         0.001994      0.000000     -0.016911
     -0.00467     -0.00000     11.45095        -0.013168      0.000000      0.027714
      3.20208     -0.00000     11.42327        -0.000843      0.000000     -0.008483
      0.00000      3.23512      3.61324         0.006187      0.000000     -0.094118
      3.20213      3.23512      3.61324         0.000593      0.000000     -0.149529
      0.00000      0.00000      0.37812         0.023396      0.000000      0.806584
      3.20213      0.00000      0.37812         0.000082      0.000000      0.798798
      1.60107      5.23080      4.85268        -0.039159     -0.026285     -0.041055
      4.80320      5.23080      4.85268         0.039584     -0.026657     -0.041200
      1.60107      1.99568      1.61756        -0.052000     -0.051184     -0.691539
      4.80320      1.99568      1.61756         0.052145     -0.051243     -0.691308
      0.00000      3.23512      6.09212         0.036088      0.000000      0.220591
      3.20213      3.23512      6.09212         0.001642      0.000000      0.154049
      0.00000      0.00000      2.85700         0.016311      0.000000      0.204645
      3.20213      0.00000      2.85700        -0.000314      0.000000      0.165922
      1.60107      1.23944      4.85268        -0.039159      0.026285     -0.041055
      4.80320      1.23944      4.85268         0.039584      0.026657     -0.041200
      1.60107      4.47456      1.61756        -0.052000      0.051184     -0.691539
      4.80320      4.47456      1.61756         0.052145      0.051243     -0.691308
      0.04393      3.23512     10.04659         0.004523      0.000000      0.011229
      3.20195      3.23512     10.05927         0.005790      0.000000      0.024033
      0.00056     -0.00000      6.85252         0.010381      0.000000      0.010982
      3.20243     -0.00000      6.85434        -0.000421      0.000000     -0.023760
      1.59931      5.23678     11.28641         0.008977     -0.003355      0.008272
      4.80479      5.23666     11.28585        -0.006979     -0.001535      0.006305
      1.60149      1.99048      8.07121         0.002430      0.005704      0.001182
      4.80328      1.99056      8.07104        -0.001638      0.004110      0.002025
      0.00976      3.23512     12.50087         0.014615      0.000000      0.003274
      3.20236      3.23512     12.48634         0.001013      0.000000      0.020639
     12.80399     -0.00000      9.35346         0.007562      0.000000      0.011829
      3.20237     -0.00000      9.33326        -0.000318      0.000000      0.006004
      1.59931      1.23346     11.28641         0.008977      0.003355      0.008272
      4.80479      1.23358     11.28585        -0.006979      0.001535      0.006305
      1.60149      4.47976      8.07121         0.002430     -0.005704      0.001182
      4.80328      4.47968      8.07104        -0.001638     -0.004110      0.002025
      3.20229     -0.00000     13.21900         0.001034      0.000000      0.008620
      0.01754     -0.00000     13.24940         0.003664      0.000000     -0.032164
      8.00533      3.23512      4.85268         0.051885      0.000000     -0.277796
     11.20747      3.23512      4.85268        -0.053299      0.000000     -0.277981
      8.00533      0.00000      1.61756         0.010900      0.000000     -0.933609
     11.20747      0.00000      1.61756        -0.011174      0.000000     -0.933271
      6.40427      3.23512      1.61756        -0.010976      0.000000      1.573669
      9.60640      3.23512      1.61756        -0.000257      0.000000      1.447163
      6.40427      0.00000      4.85268         0.058927      0.000000     -0.167819
      9.60640      0.00000      4.85268        -0.000220      0.000000     -0.181280
      7.97873      3.23512     11.33127         0.033381      0.000000      0.020663
     11.23397      3.23512     11.33070        -0.027806      0.000000      0.024539
      7.98696     -0.00000      8.08852         0.041269      0.000000      0.016084
     11.22657     -0.00000      8.08836        -0.045730      0.000000      0.016738
      6.40448      3.23512      8.08799         0.038744      0.000000      0.009898
      9.60677      3.23512      8.10985        -0.007712      0.000000     -0.011640
      6.40864     -0.00000     11.45091         0.018171      0.000000      0.024825
      9.60630     -0.00000     11.24679        -0.001308      0.000000      0.019512
      6.40427      3.23512      3.61324        -0.005768      0.000000     -0.094013
      9.60640      3.23512      3.61324        -0.000229      0.000000      0.020136
      6.40427      0.00000      0.37812        -0.023566      0.000000      0.806947
      9.60640      0.00000      0.37812        -0.000319      0.000000      0.816065
      8.00533      5.23080      4.85268        -0.056076     -0.026075     -0.023611
     11.20747      5.23080      4.85268         0.055823     -0.025820     -0.023581
      8.00533      1.99568      1.61756        -0.044644     -0.051748     -0.688355
     11.20747      1.99568      1.61756         0.044358     -0.051603     -0.688549
      6.40427      3.23512      6.09212        -0.034107      0.000000      0.221899
      9.60640      3.23512      6.09212         0.000519      0.000000      0.432761
      6.40427      0.00000      2.85700        -0.016954      0.000000      0.204826
      9.60640      0.00000      2.85700        -0.000398      0.000000      0.208167
      8.00533      1.23944      4.85268        -0.056076      0.026075     -0.023611
     11.20747      1.23944      4.85268         0.055823      0.025820     -0.023581
      8.00533      4.47456      1.61756        -0.044644      0.051748     -0.688355
     11.20747      4.47456      1.61756         0.044358      0.051603     -0.688549
      6.36117      3.23512     10.04684        -0.004742      0.000000      0.010608
      9.60667      3.23512     10.12370        -0.002290      0.000000      0.036376
      6.40413     -0.00000      6.85261        -0.007178      0.000000      0.012700
      9.60650     -0.00000      6.84735        -0.004576      0.000000      0.028004
      8.02776      5.22480     11.40270        -0.021914     -0.013030     -0.002442
     11.18490      5.22469     11.40229         0.014293     -0.011165     -0.002100
      7.99964      1.99437      8.10176        -0.002867     -0.004058      0.005246
     11.21365      1.99431      8.10115        -0.000541     -0.001381      0.006119
      6.39420      3.23512     12.50146        -0.012315      0.000000     -0.005033
      6.40965     -0.00000      9.35354        -0.008600      0.000000      0.011393
      9.60686     -0.00000      9.29775         0.000867      0.000000      0.018080
      8.02776      1.24544     11.40270        -0.021914      0.013030     -0.002442
     11.18490      1.24556     11.40229         0.014293      0.011165     -0.002100
      7.99964      4.47587      8.10176        -0.002867      0.004058      0.005246
     11.21365      4.47594      8.10115        -0.000541      0.001381      0.006119
      6.38579     -0.00000     13.24923         0.003969      0.000000     -0.017244
 -----------------------------------------------------------------------------------
    total drift:                                0.004475      0.000000     -0.062309


--------------------------------------------------------------------------------------------------------



  FREE ENERGIE OF THE ION-ELECTRON SYSTEM (eV)
  ---------------------------------------------------
  free  energy   TOTEN  =      -625.20923393 eV

  energy  without entropy=     -625.13515749  energy(sigma->0) =     -625.17219571
 
 d Force = 0.8615621E-05[ 0.721E-05, 0.100E-04]  d Energy =-0.5440613E-04 0.630E-04
 d Force =-0.3555124E+01[-0.356E+01,-0.356E+01]  d Ewald  =-0.3555124E+01-0.183E-08


--------------------------------------------------------------------------------------------------------


    POTLOK:  cpu time    0.0957: real time    0.0959


--------------------------------------------------------------------------------------------------------


 stress matrix after NEB project (eV)
    -18.84784      0.00000     -0.00170
      0.00000     -6.57074      0.00000
     -0.00170      0.00000     -3.62896
  FORCES: max atom, RMS     0.048697    0.015745
  FORCE total and by dimension    0.155872    0.045730
  Stress total and by dimension   20.287565   18.847844


--------------------------------------------------------------------------------------------------------


  
 reached required accuracy - stopping structural energy minimisation
     LOOP+:  cpu time   62.6477: real time   62.8572
    4ORBIT:  cpu time    0.0000: real time    0.0000

 total amount of memory used by VASP MPI-rank0   129406. kBytes
=======================================================================

   base      :      30000. kBytes
   nonlr-proj:       5882. kBytes
   fftplans  :       3841. kBytes
   grid      :      10919. kBytes
   one-center:        311. kBytes
   wavefun   :      78453. kBytes
 
  
  
 General timing and accounting informations for this job:
 ========================================================
  
                  Total CPU time used (sec):     2061.933
                            User time (sec):     2016.282
                          System time (sec):       45.651
                         Elapsed time (sec):     2069.022
  
                   Maximum memory used (kb):      208276.
                   Average memory used (kb):           0.
  
                          Minor page faults:        88929
                          Major page faults:           49
                 Voluntary context switches:         2856
