<?xml version="1.0" encoding="ISO-8859-1"?>
<modeling>
 <generator>
  <i name="program" type="string">vasp </i>
  <i name="version" type="string">5.4.4.18Apr17-6-g9f103f2a35  </i>
  <i name="subversion" type="string">(build Feb 25 2019 10:51:38) complex            parallel </i>
  <i name="platform" type="string">LinuxIFC </i>
  <i name="date" type="string">2023 03 14 </i>
  <i name="time" type="string">11:38:47 </i>
 </generator>
 <incar>
  <i type="string" name="PREC">normal</i>
  <i type="string" name="ALGO"> Fast</i>
  <i type="int" name="ISPIN">     2</i>
  <i type="int" name="ICHARG">     2</i>
  <i type="int" name="NELM">    60</i>
  <i type="int" name="NELMIN">     4</i>
  <i type="int" name="IBRION">     2</i>
  <i name="EDIFF">      0.00001000</i>
  <i name="EDIFFG">     -0.05000000</i>
  <i type="int" name="NSW">   500</i>
  <i type="int" name="ISIF">     2</i>
  <i name="ENCUT">    500.00000000</i>
  <v name="MAGMOM">      0.60000000      0.60000000      0.60000000      0.60000000      0.60000000      0.60000000      0.60000000      0.60000000      0.60000000      0.60000000      0.60000000      0.60000000      0.60000000      0.60000000      0.60000000      0.60000000      0.60000000      0.60000000      0.60000000      0.60000000
      0.60000000      0.60000000      0.60000000      0.60000000      0.60000000      0.60000000      0.60000000      0.60000000      0.60000000      0.60000000      0.60000000      0.60000000      0.60000000      0.60000000      0.60000000      0.60000000      0.60000000      0.60000000      0.60000000      0.60000000
      0.60000000      0.60000000      0.60000000      0.60000000      0.60000000      0.60000000      0.60000000      0.60000000      0.60000000      0.60000000      0.60000000      0.60000000      0.60000000      0.60000000      0.60000000      0.60000000      0.60000000      0.60000000      0.60000000      0.60000000
      0.60000000      0.60000000      0.60000000      0.60000000      0.60000000      0.60000000      0.60000000      0.60000000      0.60000000      0.60000000      0.60000000      0.60000000      0.60000000      0.60000000      0.60000000      0.60000000      0.60000000      0.60000000      0.60000000      0.60000000
      0.60000000      0.60000000      0.60000000      0.60000000      0.60000000      0.60000000      0.60000000      0.60000000      0.60000000      0.60000000      0.60000000      0.60000000      0.60000000      0.60000000      0.60000000      0.60000000      0.60000000      0.60000000</v>
  <i type="string" name="LREAL"> Auto</i>
  <i type="int" name="ISMEAR">     0</i>
  <i name="SIGMA">      0.05000000</i>
  <i type="logical" name="LWAVE"> F  </i>
  <i type="logical" name="LCHARG"> F  </i>
  <v type="int" name="KPOINT_BSE">    -1     0     0     0</v>
  <i type="int" name="NELM">    60</i>
  <i type="string" name="GGA"> Rp</i>
  <i type="logical" name="LDIPOL"> T  </i>
  <i type="int" name="IDIPOL">     3</i>
  <v name="DIPOL">      0.37555500      0.26665008      0.25114130</v>
 </incar>
 <structure name="primitive_cell" >
  <crystal>
   <varray name="basis" >
    <v>      12.80853200       0.00000000       0.00000000 </v>
    <v>       0.00000000       6.47024300       0.00000000 </v>
    <v>       0.00000000       0.00000000      25.88097200 </v>
   </varray>
   <i name="volume">   2144.86781344 </i>
   <varray name="rec_basis" >
    <v>       0.07807296       0.00000000       0.00000000 </v>
    <v>       0.00000000       0.15455370       0.00000000 </v>
    <v>       0.00000000       0.00000000       0.03863843 </v>
   </varray>
  </crystal>
  <varray name="positions" >
   <v>       0.12500000      -0.50000000       0.18750000 </v>
   <v>       0.12500000      -0.19156000       0.18750000 </v>
   <v>       0.12500000       0.19156000       0.18750000 </v>
   <v>       0.00000000      -0.50000000       0.13961000 </v>
   <v>       0.25000000      -0.50000000       0.13961000 </v>
   <v>       0.00000000      -0.50000000       0.23539000 </v>
   <v>       0.25000000      -0.50000000       0.23539000 </v>
   <v>       0.37500000      -0.50000000       0.18750000 </v>
   <v>      -0.12500000      -0.50000000       0.18750000 </v>
   <v>       0.12491836       0.30760594       0.31240167 </v>
   <v>       0.12491836      -0.30760594       0.31240167 </v>
   <v>       0.12500000       0.30844000       0.06250000 </v>
   <v>       0.12500000      -0.30844000       0.06250000 </v>
   <v>       0.00000000      -0.50000000       0.06250000 </v>
   <v>       0.25000000      -0.50000000       0.06250000 </v>
   <v>       0.00000000       0.00000000       0.18750000 </v>
   <v>       0.25000000       0.00000000       0.18750000 </v>
   <v>       0.00019612      -0.50000000       0.31278633 </v>
   <v>       0.25001487      -0.50000000       0.31279205 </v>
   <v>       0.37500000      -0.19156000       0.18750000 </v>
   <v>       0.37500000       0.19156000       0.18750000 </v>
   <v>      -0.12500000      -0.19156000       0.18750000 </v>
   <v>      -0.12500000       0.19156000       0.18750000 </v>
   <v>       0.00018448       0.00000000       0.26450989 </v>
   <v>       0.00000000       0.00000000       0.11039000 </v>
   <v>       0.25000000       0.00000000       0.11039000 </v>
   <v>       0.25001497       0.00000000       0.26477199 </v>
   <v>       0.12500000       0.00000000       0.06250000 </v>
   <v>       0.12512550       0.00000000       0.31274608 </v>
   <v>      -0.12454075       0.30817210       0.31266331 </v>
   <v>      -0.12454075      -0.30817210       0.31266331 </v>
   <v>       0.37500000       0.30844000       0.06250000 </v>
   <v>       0.37500000      -0.30844000       0.06250000 </v>
   <v>      -0.12500000       0.30844000       0.06250000 </v>
   <v>      -0.12500000      -0.30844000       0.06250000 </v>
   <v>       0.37511449       0.30761960       0.31239843 </v>
   <v>       0.37511449      -0.30761960       0.31239843 </v>
   <v>      -0.50000000      -0.50000000       0.13961000 </v>
   <v>      -0.25000000      -0.50000000       0.13961000 </v>
   <v>      -0.50000000      -0.50000000       0.23539000 </v>
   <v>      -0.25000000      -0.50000000       0.23539000 </v>
   <v>       0.00011515      -0.50000000       0.38937919 </v>
   <v>       0.25001536      -0.50000000       0.38936571 </v>
   <v>      -0.12353247       0.00000000       0.31233803 </v>
   <v>       0.37500000       0.00000000       0.06250000 </v>
   <v>      -0.12500000       0.00000000       0.06250000 </v>
   <v>       0.37490434       0.00000000       0.31274676 </v>
   <v>       0.00000000       0.00000000       0.01461000 </v>
   <v>       0.25000000       0.00000000       0.01461000 </v>
   <v>       0.25001768       0.00000000       0.36058837 </v>
   <v>      -0.00009789       0.00000000       0.36088158 </v>
   <v>      -0.50000000      -0.50000000       0.06250000 </v>
   <v>      -0.25000000      -0.50000000       0.06250000 </v>
   <v>      -0.50000000       0.00000000       0.18750000 </v>
   <v>      -0.25000000       0.00000000       0.18750000 </v>
   <v>       0.49984711      -0.50000000       0.31278849 </v>
   <v>      -0.24998086      -0.50000000       0.31299200 </v>
   <v>       0.49982793       0.00000000       0.26451790 </v>
   <v>      -0.24999532       0.00000000       0.26454417 </v>
   <v>      -0.50000000       0.00000000       0.11039000 </v>
   <v>      -0.25000000       0.00000000       0.11039000 </v>
   <v>      -0.37500000      -0.50000000       0.18750000 </v>
   <v>       0.12502556      -0.50000000       0.43786970 </v>
   <v>      -0.37500000      -0.19156000       0.18750000 </v>
   <v>      -0.37500000       0.19156000       0.18750000 </v>
   <v>       0.12479855      -0.19114034       0.43610376 </v>
   <v>       0.12479855       0.19114034       0.43610376 </v>
   <v>       0.49991195      -0.50000000       0.38938558 </v>
   <v>      -0.24998354      -0.50000000       0.38966848 </v>
   <v>       0.37499778      -0.50000000       0.43785475 </v>
   <v>      -0.12481153      -0.50000000       0.43821024 </v>
   <v>      -0.37542121       0.30812319       0.31266525 </v>
   <v>      -0.37542121      -0.30812319       0.31266525 </v>
   <v>      -0.37500000       0.30844000       0.06250000 </v>
   <v>      -0.37500000      -0.30844000       0.06250000 </v>
   <v>      -0.24997903       0.00000000       0.35910786 </v>
   <v>      -0.50000000       0.00000000       0.01461000 </v>
   <v>      -0.25000000       0.00000000       0.01461000 </v>
   <v>      -0.49986768       0.00000000       0.36089611 </v>
   <v>       0.37523258      -0.19111893       0.43608605 </v>
   <v>       0.37523258       0.19111893       0.43608605 </v>
   <v>       0.25002350       0.00000000       0.44123418 </v>
   <v>      -0.12527578      -0.19102670       0.43810320 </v>
   <v>      -0.12527578       0.19102670       0.43810320 </v>
   <v>      -0.00011284       0.00000000       0.44193929 </v>
   <v>       0.25002697      -0.50000000       0.48332355 </v>
   <v>       0.00043576      -0.50000000       0.48352794 </v>
   <v>      -0.37643474       0.00000000       0.31234243 </v>
   <v>      -0.37500000       0.00000000       0.06250000 </v>
   <v>      -0.25000323       0.00000000       0.43394700 </v>
   <v>      -0.49986503       0.00000000       0.44196780 </v>
   <v>       0.49949300      -0.50000000       0.48352120 </v>
   <v>       0.24999477       0.00000000      -0.48938926 </v>
   <v>      -0.37515151      -0.50000000       0.43822934 </v>
   <v>       0.00207477       0.00000000      -0.48871760 </v>
   <v>      -0.37470640      -0.19107911       0.43809901 </v>
   <v>      -0.37470640       0.19107911       0.43809901 </v>
   <v>       0.49782902       0.00000000      -0.48869464 </v>
  </varray>
 </structure>
 <varray name="primitive_index" >
  <v type="int" >        1 </v>
  <v type="int" >       21 </v>
  <v type="int" >       29 </v>
  <v type="int" >       17 </v>
  <v type="int" >       18 </v>
  <v type="int" >       25 </v>
  <v type="int" >       26 </v>
  <v type="int" >        2 </v>
  <v type="int" >       52 </v>
  <v type="int" >       39 </v>
  <v type="int" >       47 </v>
  <v type="int" >       23 </v>
  <v type="int" >       31 </v>
  <v type="int" >        5 </v>
  <v type="int" >        6 </v>
  <v type="int" >        7 </v>
  <v type="int" >        8 </v>
  <v type="int" >       13 </v>
  <v type="int" >       14 </v>
  <v type="int" >       22 </v>
  <v type="int" >       30 </v>
  <v type="int" >       72 </v>
  <v type="int" >       80 </v>
  <v type="int" >       35 </v>
  <v type="int" >       27 </v>
  <v type="int" >       28 </v>
  <v type="int" >       36 </v>
  <v type="int" >        3 </v>
  <v type="int" >       11 </v>
  <v type="int" >       90 </v>
  <v type="int" >       97 </v>
  <v type="int" >       24 </v>
  <v type="int" >       32 </v>
  <v type="int" >       74 </v>
  <v type="int" >       82 </v>
  <v type="int" >       40 </v>
  <v type="int" >       48 </v>
  <v type="int" >       67 </v>
  <v type="int" >       68 </v>
  <v type="int" >       75 </v>
  <v type="int" >       76 </v>
  <v type="int" >       33 </v>
  <v type="int" >       34 </v>
  <v type="int" >       62 </v>
  <v type="int" >        4 </v>
  <v type="int" >       54 </v>
  <v type="int" >       12 </v>
  <v type="int" >       19 </v>
  <v type="int" >       20 </v>
  <v type="int" >       44 </v>
  <v type="int" >       43 </v>
  <v type="int" >       55 </v>
  <v type="int" >       56 </v>
  <v type="int" >       57 </v>
  <v type="int" >       58 </v>
  <v type="int" >       63 </v>
  <v type="int" >       64 </v>
  <v type="int" >       85 </v>
  <v type="int" >       86 </v>
  <v type="int" >       77 </v>
  <v type="int" >       78 </v>
  <v type="int" >       51 </v>
  <v type="int" >        9 </v>
  <v type="int" >       71 </v>
  <v type="int" >       79 </v>
  <v type="int" >       37 </v>
  <v type="int" >       45 </v>
  <v type="int" >       83 </v>
  <v type="int" >       84 </v>
  <v type="int" >       10 </v>
  <v type="int" >       60 </v>
  <v type="int" >       89 </v>
  <v type="int" >       96 </v>
  <v type="int" >       73 </v>
  <v type="int" >       81 </v>
  <v type="int" >       93 </v>
  <v type="int" >       69 </v>
  <v type="int" >       70 </v>
  <v type="int" >       92 </v>
  <v type="int" >       38 </v>
  <v type="int" >       46 </v>
  <v type="int" >       16 </v>
  <v type="int" >       88 </v>
  <v type="int" >       95 </v>
  <v type="int" >       15 </v>
  <v type="int" >       42 </v>
  <v type="int" >       41 </v>
  <v type="int" >       61 </v>
  <v type="int" >       53 </v>
  <v type="int" >       66 </v>
  <v type="int" >       65 </v>
  <v type="int" >       91 </v>
  <v type="int" >       49 </v>
  <v type="int" >       59 </v>
  <v type="int" >       50 </v>
  <v type="int" >       87 </v>
  <v type="int" >       94 </v>
  <v type="int" >       98 </v>
 </varray>
 <kpoints>
  <generation param="Gamma">
   <v type="int" name="divisions">       3        3        1 </v>
   <v name="usershift">      0.00000000       0.00000000       0.00000000 </v>
   <v name="genvec1">      0.33333333       0.00000000       0.00000000 </v>
   <v name="genvec2">      0.00000000       0.33333333       0.00000000 </v>
   <v name="genvec3">      0.00000000       0.00000000       1.00000000 </v>
   <v name="shift">      0.00000000       0.00000000       0.00000000 </v>
  </generation>
  <varray name="kpointlist" >
   <v>       0.00000000       0.00000000       0.00000000 </v>
   <v>       0.33333333       0.00000000       0.00000000 </v>
   <v>       0.00000000       0.33333333       0.00000000 </v>
   <v>       0.33333333       0.33333333       0.00000000 </v>
  </varray>
  <varray name="weights" >
   <v>       0.11111111 </v>
   <v>       0.22222222 </v>
   <v>       0.22222222 </v>
   <v>       0.44444444 </v>
  </varray>
 </kpoints>
 <parameters>
  <separator name="general" >
   <i type="string" name="SYSTEM">unknown system</i>
   <i type="logical" name="LCOMPAT"> F  </i>
  </separator>
  <separator name="electronic" >
   <i type="string" name="PREC">normal</i>
   <i name="ENMAX">    500.00000000</i>
   <i name="ENAUG">    605.39200000</i>
   <i name="EDIFF">      0.00001000</i>
   <i type="int" name="IALGO">    68</i>
   <i type="int" name="IWAVPR">    11</i>
   <i type="int" name="NBANDS">   440</i>
   <i name="NELECT">    684.00000000</i>
   <i type="int" name="TURBO">     0</i>
   <i type="int" name="IRESTART">     0</i>
   <i type="int" name="NREBOOT">     0</i>
   <i type="int" name="NMIN">     0</i>
   <i name="EREF">      0.00000000</i>
   <separator name="electronic smearing" >
    <i type="int" name="ISMEAR">     0</i>
    <i name="SIGMA">      0.05000000</i>
    <i name="KSPACING">      0.50000000</i>
    <i type="logical" name="KGAMMA"> T  </i>
   </separator>
   <separator name="electronic projectors" >
    <i type="logical" name="LREAL"> T  </i>
    <v name="ROPT">     -0.00050000     -0.00050000     -0.00050000     -0.00050000</v>
    <i type="int" name="LMAXPAW">  -100</i>
    <i type="int" name="LMAXMIX">     2</i>
    <i type="logical" name="NLSPLINE"> F  </i>
   </separator>
   <separator name="electronic startup" >
    <i type="int" name="ISTART">     0</i>
    <i type="int" name="ICHARG">     2</i>
    <i type="int" name="INIWAV">     1</i>
   </separator>
   <separator name="electronic spin" >
    <i type="int" name="ISPIN">     2</i>
    <i type="logical" name="LNONCOLLINEAR"> F  </i>
    <v name="MAGMOM">      0.60000000      0.60000000      0.60000000      0.60000000      0.60000000      0.60000000      0.60000000      0.60000000      0.60000000      0.60000000      0.60000000      0.60000000      0.60000000      0.60000000      0.60000000      0.60000000      0.60000000      0.60000000      0.60000000      0.60000000
      0.60000000      0.60000000      0.60000000      0.60000000      0.60000000      0.60000000      0.60000000      0.60000000      0.60000000      0.60000000      0.60000000      0.60000000      0.60000000      0.60000000      0.60000000      0.60000000      0.60000000      0.60000000      0.60000000      0.60000000
      0.60000000      0.60000000      0.60000000      0.60000000      0.60000000      0.60000000      0.60000000      0.60000000      0.60000000      0.60000000      0.60000000      0.60000000      0.60000000      0.60000000      0.60000000      0.60000000      0.60000000      0.60000000      0.60000000      0.60000000
      0.60000000      0.60000000      0.60000000      0.60000000      0.60000000      0.60000000      0.60000000      0.60000000      0.60000000      0.60000000      0.60000000      0.60000000      0.60000000      0.60000000      0.60000000      0.60000000      0.60000000      0.60000000      0.60000000      0.60000000
      0.60000000      0.60000000      0.60000000      0.60000000      0.60000000      0.60000000      0.60000000      0.60000000      0.60000000      0.60000000      0.60000000      0.60000000      0.60000000      0.60000000      0.60000000      0.60000000      0.60000000      0.60000000</v>
    <i name="NUPDOWN">     -1.00000000</i>
    <i type="logical" name="LSORBIT"> F  </i>
    <v name="SAXIS">      0.00000000      0.00000000      1.00000000</v>
    <i type="logical" name="LSPIRAL"> F  </i>
    <v name="QSPIRAL">      0.00000000      0.00000000      0.00000000</v>
    <i type="logical" name="LZEROZ"> F  </i>
   </separator>
   <separator name="electronic exchange-correlation" >
    <i type="logical" name="LASPH"> F  </i>
    <i type="logical" name="LMETAGGA"> F  </i>
   </separator>
   <separator name="electronic convergence" >
    <i type="int" name="NELM">    60</i>
    <i type="int" name="NELMDL">    -5</i>
    <i type="int" name="NELMIN">     4</i>
    <i name="ENINI">    500.00000000</i>
    <separator name="electronic convergence detail" >
     <i type="logical" name="LDIAG"> T  </i>
     <i type="logical" name="LSUBROT"> F  </i>
     <i name="WEIMIN">      0.00100000</i>
     <i name="EBREAK">      0.00000001</i>
     <i name="DEPER">      0.30000000</i>
     <i type="int" name="NRMM">     4</i>
     <i name="TIME">      0.40000000</i>
    </separator>
   </separator>
   <separator name="electronic mixer" >
    <i name="AMIX">      0.40000000</i>
    <i name="BMIX">      1.00000000</i>
    <i name="AMIN">      0.10000000</i>
    <i name="AMIX_MAG">      1.60000000</i>
    <i name="BMIX_MAG">      1.00000000</i>
    <separator name="electronic mixer details" >
     <i type="int" name="IMIX">     4</i>
     <i type="logical" name="MIXFIRST"> F  </i>
     <i type="int" name="MAXMIX">   -45</i>
     <i name="WC">    100.00000000</i>
     <i type="int" name="INIMIX">     1</i>
     <i type="int" name="MIXPRE">     1</i>
     <i type="int" name="MREMOVE">     5</i>
    </separator>
   </separator>
   <separator name="electronic dipolcorrection" >
    <i type="logical" name="LDIPOL"> T  </i>
    <i type="logical" name="LMONO"> F  </i>
    <i type="int" name="IDIPOL">     3</i>
    <i name="EPSILON">      1.00000000</i>
    <v name="DIPOL">      0.37555500      0.26665008      0.25114130</v>
    <i name="EFIELD">      0.00000000</i>
   </separator>
  </separator>
  <separator name="grids" >
   <i type="int" name="NGX">    70</i>
   <i type="int" name="NGY">    36</i>
   <i type="int" name="NGZ">   144</i>
   <i type="int" name="NGXF">   140</i>
   <i type="int" name="NGYF">    72</i>
   <i type="int" name="NGZF">   288</i>
   <i type="logical" name="ADDGRID"> F  </i>
  </separator>
  <separator name="ionic" >
   <i type="int" name="NSW">   500</i>
   <i type="int" name="IBRION">     2</i>
   <i type="int" name="MDALGO">     0</i>
   <i type="int" name="ISIF">     2</i>
   <i name="PSTRESS">      0.00000000</i>
   <i name="EDIFFG">     -0.05000000</i>
   <i type="int" name="NFREE">     1</i>
   <i name="POTIM">      0.50000000</i>
   <i name="SMASS">     -3.00000000</i>
   <i name="SCALEE">      1.00000000</i>
  </separator>
  <separator name="ionic md" >
   <i name="TEBEG">      0.00010000</i>
   <i name="TEEND">      0.00010000</i>
   <i type="int" name="NBLOCK">     1</i>
   <i type="int" name="KBLOCK">   500</i>
   <i type="int" name="NPACO">   256</i>
   <i name="APACO">     16.00000000</i>
  </separator>
  <separator name="symmetry" >
   <i type="int" name="ISYM">     2</i>
   <i name="SYMPREC">      0.00001000</i>
  </separator>
  <separator name="dos" >
   <i type="int" name="LORBIT">     0</i>
   <v name="RWIGS">     -1.00000000     -1.00000000     -1.00000000     -1.00000000</v>
   <i type="int" name="NEDOS">   301</i>
   <i name="EMIN">     10.00000000</i>
   <i name="EMAX">    -10.00000000</i>
   <i name="EFERMI">      0.00000000</i>
  </separator>
  <separator name="writing" >
   <i type="int" name="NWRITE">     2</i>
   <i type="logical" name="LWAVE"> F  </i>
   <i type="logical" name="LDOWNSAMPLE"> F  </i>
   <i type="logical" name="LCHARG"> F  </i>
   <i type="logical" name="LPARD"> F  </i>
   <i type="logical" name="LVTOT"> F  </i>
   <i type="logical" name="LVHAR"> F  </i>
   <i type="logical" name="LELF"> F  </i>
   <i type="logical" name="LOPTICS"> F  </i>
   <v name="STM">      0.00000000      0.00000000      0.00000000      0.00000000      0.00000000      0.00000000      0.00000000</v>
  </separator>
  <separator name="performance" >
   <i type="int" name="NPAR">     4</i>
   <i type="int" name="NSIM">     4</i>
   <i type="int" name="NBLK">    -1</i>
   <i type="logical" name="LPLANE"> T  </i>
   <i type="logical" name="LSCALAPACK"> T  </i>
   <i type="logical" name="LSCAAWARE"> F  </i>
   <i type="logical" name="LSCALU"> F  </i>
   <i type="logical" name="LASYNC"> F  </i>
   <i type="logical" name="LORBITALREAL"> F  </i>
  </separator>
  <separator name="miscellaneous" >
   <i type="int" name="IDIOT">     3</i>
   <i type="int" name="ISPECIAL">     0</i>
   <i type="logical" name="LMUSIC"> F  </i>
   <v name="POMASS">    192.22000000     16.00000000    192.22000000     16.00000000</v>
   <v name="DARWINR">      0.00000000      0.00000000      0.00000000      0.00000000</v>
   <v name="DARWINV">      1.00000000      1.00000000      1.00000000      1.00000000</v>
   <i type="logical" name="LCORR"> T  </i>
  </separator>
  <i type="logical" name="GGA_COMPAT"> T  </i>
  <i type="logical" name="LBERRY"> F  </i>
  <i type="int" name="ICORELEVEL">     0</i>
  <i type="logical" name="LDAU"> F  </i>
  <i type="int" name="I_CONSTRAINED_M">     0</i>
  <separator name="electronic exchange-correlation" >
   <i type="string" name="GGA">RP</i>
   <i type="int" name="VOSKOWN">     0</i>
   <i type="logical" name="LHFCALC"> F  </i>
   <i type="string" name="PRECFOCK"></i>
   <i type="logical" name="LSYMGRAD"> F  </i>
   <i type="logical" name="LHFONE"> F  </i>
   <i type="logical" name="LRHFCALC"> F  </i>
   <i type="logical" name="LTHOMAS"> F  </i>
   <i type="logical" name="LMODELHF"> F  </i>
   <i name="ENCUT4O">     -1.00000000</i>
   <i type="int" name="EXXOEP">     0</i>
   <i type="int" name="FOURORBIT">     0</i>
   <i name="AEXX">      0.00000000</i>
   <i name="HFALPHA">      0.00000000</i>
   <i name="MCALPHA">      0.00000000</i>
   <i name="ALDAX">      1.00000000</i>
   <i name="AGGAX">      1.00000000</i>
   <i name="ALDAC">      1.00000000</i>
   <i name="AGGAC">      1.00000000</i>
   <i type="int" name="NKREDX">     1</i>
   <i type="int" name="NKREDY">     1</i>
   <i type="int" name="NKREDZ">     1</i>
   <i type="logical" name="SHIFTRED"> F  </i>
   <i type="logical" name="ODDONLY"> F  </i>
   <i type="logical" name="EVENONLY"> F  </i>
   <i type="int" name="LMAXFOCK">     0</i>
   <i type="int" name="NMAXFOCKAE">     0</i>
   <i type="logical" name="LFOCKAEDFT"> F  </i>
   <i name="HFSCREEN">      0.00000000</i>
   <i name="HFSCREENC">      0.00000000</i>
   <i type="int" name="NBANDSGWLOW">     0</i>
  </separator>
  <separator name="vdW DFT" >
   <i type="logical" name="LUSE_VDW"> F  </i>
   <i name="Zab_VDW">     -0.84910000</i>
   <i name="PARAM1">      0.12340000</i>
   <i name="PARAM2">      1.00000000</i>
   <i name="PARAM3">      0.00000000</i>
  </separator>
  <separator name="model GW" >
   <i type="int" name="MODEL_GW">     0</i>
   <i name="MODEL_EPS0">     13.13184376</i>
   <i name="MODEL_ALPHA">      1.00000000</i>
  </separator>
  <separator name="linear response parameters" >
   <i type="logical" name="LEPSILON"> F  </i>
   <i type="logical" name="LRPA"> F  </i>
   <i type="logical" name="LNABLA"> F  </i>
   <i type="logical" name="LVEL"> F  </i>
   <i type="int" name="KINTER">     0</i>
   <i name="CSHIFT">      0.10000000</i>
   <i name="OMEGAMAX">     -1.00000000</i>
   <i name="DEG_THRESHOLD">      0.00200000</i>
   <i name="RTIME">     -0.10000000</i>
   <i name="WPLASMAI">      0.00000000</i>
   <v name="DFIELD">      0.00000000      0.00000000      0.00000000</v>
   <v name="WPLASMA">      0.00000000      0.00000000      0.00000000      0.00000000      0.00000000      0.00000000      0.00000000      0.00000000      0.00000000</v>
  </separator>
  <separator name="orbital magnetization" >
   <i type="logical" name="NUCIND"> F  </i>
   <v name="MAGPOS">      0.00000000      0.00000000      0.00000000</v>
   <i type="logical" name="LNICSALL"> T  </i>
   <i type="logical" name="ORBITALMAG"> F  </i>
   <i type="logical" name="LMAGBLOCH"> F  </i>
   <i type="logical" name="LCHIMAG"> F  </i>
   <i type="logical" name="LGAUGE"> T  </i>
   <i type="int" name="MAGATOM">     0</i>
   <v name="MAGDIPOL">      0.00000000      0.00000000      0.00000000</v>
   <v name="AVECCONST">      0.00000000      0.00000000      0.00000000</v>
  </separator>
  <separator name="response functions" >
   <i type="logical" name="LADDER"> F  </i>
   <i type="logical" name="LRPAFORCE"> F  </i>
   <i type="logical" name="LFXC"> F  </i>
   <i type="logical" name="LHARTREE"> T  </i>
   <i type="int" name="IBSE">     0</i>
   <v type="int" name="KPOINT">    -1     0     0     0</v>
   <i type="logical" name="LTCTE"> F  </i>
   <i type="logical" name="LTETE"> F  </i>
   <i type="logical" name="LTRIPLET"> F  </i>
   <i type="logical" name="LFXCEPS"> F  </i>
   <i type="logical" name="LFXHEG"> F  </i>
   <i type="int" name="NATURALO">     2</i>
   <i type="logical" name="L2ORDER"> F  </i>
   <i type="logical" name="LMP2LT"> F  </i>
   <i type="logical" name="LUSEW"> F  </i>
   <i name="ENCUTGW">     -2.00000000</i>
   <i name="ENCUTGWSOFT">     -2.00000000</i>
   <i name="ENCUTLF">     -1.00000000</i>
   <i type="int" name="LMAXMP2">    -1</i>
   <i name="SCISSOR">      0.00000000</i>
   <i type="int" name="NOMEGA">     0</i>
   <i type="int" name="NOMEGAR">     0</i>
   <i type="int" name="NBANDSGW">    -1</i>
   <i type="int" name="NBANDSO">    -1</i>
   <i type="int" name="NBANDSV">    -1</i>
   <i type="int" name="NELM">    60</i>
   <i type="int" name="NELMHF">     1</i>
   <i type="int" name="DIM">     3</i>
   <i type="int" name="ANTIRES">     0</i>
   <i name="OMEGAMAX">    -30.00000000</i>
   <i name="OMEGAMIN">    -30.00000000</i>
   <i name="OMEGATL">   -200.00000000</i>
   <i type="int" name="OMEGAGRID">   140</i>
   <i name="CSHIFT">     -0.10000000</i>
   <i type="logical" name="SELFENERGY"> F  </i>
   <i type="logical" name="LSPECTRAL"> F  </i>
   <i type="logical" name="LSPECTRALGW"> F  </i>
   <i type="logical" name="LSINGLES"> F  </i>
   <i type="logical" name="LFERMIGW"> F  </i>
   <i type="logical" name="ODDONLYGW"> F  </i>
   <i type="logical" name="EVENONLYGW"> F  </i>
   <i type="int" name="NKREDLFX">     1</i>
   <i type="int" name="NKREDLFY">     1</i>
   <i type="int" name="NKREDLFZ">     1</i>
   <i type="int" name="MAXMEM">  2800</i>
   <i type="int" name="TELESCOPE">     0</i>
   <i type="int" name="TAUPAR">     1</i>
   <i type="int" name="OMEGAPAR">    -1</i>
   <i name="LAMBDA">      1.00000000</i>
  </separator>
  <separator name="External order field" >
   <i name="OFIELD_KAPPA">      0.00000000</i>
   <v name="OFIELD_K">      0.00000000      0.00000000      0.00000000</v>
   <i name="OFIELD_Q6_NEAR">      0.00000000</i>
   <i name="OFIELD_Q6_FAR">      0.00000000</i>
   <i name="OFIELD_A">      0.00000000</i>
  </separator>
  <separator name="solvation model" >
   <i type="logical" name="LSOL"> F  </i>
  </separator>
 </parameters>
 <atominfo>
  <atoms>      98 </atoms>
  <types>       4 </types>
  <array name="atoms" >
   <dimension dim="1">ion</dimension>
   <field type="string">element</field>
   <field type="int">atomtype</field>
   <set>
    <rc><c>Ir</c><c>   1</c></rc>
    <rc><c>Ir</c><c>   1</c></rc>
    <rc><c>Ir</c><c>   1</c></rc>
    <rc><c>Ir</c><c>   1</c></rc>
    <rc><c>Ir</c><c>   1</c></rc>
    <rc><c>Ir</c><c>   1</c></rc>
    <rc><c>Ir</c><c>   1</c></rc>
    <rc><c>Ir</c><c>   1</c></rc>
    <rc><c>Ir</c><c>   1</c></rc>
    <rc><c>Ir</c><c>   1</c></rc>
    <rc><c>Ir</c><c>   1</c></rc>
    <rc><c>Ir</c><c>   1</c></rc>
    <rc><c>Ir</c><c>   1</c></rc>
    <rc><c>Ir</c><c>   1</c></rc>
    <rc><c>Ir</c><c>   1</c></rc>
    <rc><c>Ir</c><c>   1</c></rc>
    <rc><c>O </c><c>   2</c></rc>
    <rc><c>O </c><c>   2</c></rc>
    <rc><c>O </c><c>   2</c></rc>
    <rc><c>O </c><c>   2</c></rc>
    <rc><c>O </c><c>   2</c></rc>
    <rc><c>O </c><c>   2</c></rc>
    <rc><c>O </c><c>   2</c></rc>
    <rc><c>O </c><c>   2</c></rc>
    <rc><c>O </c><c>   2</c></rc>
    <rc><c>O </c><c>   2</c></rc>
    <rc><c>O </c><c>   2</c></rc>
    <rc><c>O </c><c>   2</c></rc>
    <rc><c>O </c><c>   2</c></rc>
    <rc><c>O </c><c>   2</c></rc>
    <rc><c>O </c><c>   2</c></rc>
    <rc><c>O </c><c>   2</c></rc>
    <rc><c>O </c><c>   2</c></rc>
    <rc><c>O </c><c>   2</c></rc>
    <rc><c>O </c><c>   2</c></rc>
    <rc><c>O </c><c>   2</c></rc>
    <rc><c>O </c><c>   2</c></rc>
    <rc><c>O </c><c>   2</c></rc>
    <rc><c>O </c><c>   2</c></rc>
    <rc><c>O </c><c>   2</c></rc>
    <rc><c>O </c><c>   2</c></rc>
    <rc><c>O </c><c>   2</c></rc>
    <rc><c>O </c><c>   2</c></rc>
    <rc><c>O </c><c>   2</c></rc>
    <rc><c>O </c><c>   2</c></rc>
    <rc><c>O </c><c>   2</c></rc>
    <rc><c>O </c><c>   2</c></rc>
    <rc><c>O </c><c>   2</c></rc>
    <rc><c>O </c><c>   2</c></rc>
    <rc><c>O </c><c>   2</c></rc>
    <rc><c>Ir</c><c>   3</c></rc>
    <rc><c>Ir</c><c>   3</c></rc>
    <rc><c>Ir</c><c>   3</c></rc>
    <rc><c>Ir</c><c>   3</c></rc>
    <rc><c>Ir</c><c>   3</c></rc>
    <rc><c>Ir</c><c>   3</c></rc>
    <rc><c>Ir</c><c>   3</c></rc>
    <rc><c>Ir</c><c>   3</c></rc>
    <rc><c>Ir</c><c>   3</c></rc>
    <rc><c>Ir</c><c>   3</c></rc>
    <rc><c>Ir</c><c>   3</c></rc>
    <rc><c>Ir</c><c>   3</c></rc>
    <rc><c>Ir</c><c>   3</c></rc>
    <rc><c>Ir</c><c>   3</c></rc>
    <rc><c>Ir</c><c>   3</c></rc>
    <rc><c>Ir</c><c>   3</c></rc>
    <rc><c>O </c><c>   4</c></rc>
    <rc><c>O </c><c>   4</c></rc>
    <rc><c>O </c><c>   4</c></rc>
    <rc><c>O </c><c>   4</c></rc>
    <rc><c>O </c><c>   4</c></rc>
    <rc><c>O </c><c>   4</c></rc>
    <rc><c>O </c><c>   4</c></rc>
    <rc><c>O </c><c>   4</c></rc>
    <rc><c>O </c><c>   4</c></rc>
    <rc><c>O </c><c>   4</c></rc>
    <rc><c>O </c><c>   4</c></rc>
    <rc><c>O </c><c>   4</c></rc>
    <rc><c>O </c><c>   4</c></rc>
    <rc><c>O </c><c>   4</c></rc>
    <rc><c>O </c><c>   4</c></rc>
    <rc><c>O </c><c>   4</c></rc>
    <rc><c>O </c><c>   4</c></rc>
    <rc><c>O </c><c>   4</c></rc>
    <rc><c>O </c><c>   4</c></rc>
    <rc><c>O </c><c>   4</c></rc>
    <rc><c>O </c><c>   4</c></rc>
    <rc><c>O </c><c>   4</c></rc>
    <rc><c>O </c><c>   4</c></rc>
    <rc><c>O </c><c>   4</c></rc>
    <rc><c>O </c><c>   4</c></rc>
    <rc><c>O </c><c>   4</c></rc>
    <rc><c>O </c><c>   4</c></rc>
    <rc><c>O </c><c>   4</c></rc>
    <rc><c>O </c><c>   4</c></rc>
    <rc><c>O </c><c>   4</c></rc>
    <rc><c>O </c><c>   4</c></rc>
    <rc><c>O </c><c>   4</c></rc>
   </set>
  </array>
  <array name="atomtypes" >
   <dimension dim="1">type</dimension>
   <field type="int">atomspertype</field>
   <field type="string">element</field>
   <field>mass</field>
   <field>valence</field>
   <field type="string">pseudopotential</field>
   <set>
    <rc><c>  16</c><c>Ir</c><c>    192.22000000</c><c>      9.00000000</c><c>  PAW_PBE Ir 06Sep2000                  </c></rc>
    <rc><c>  34</c><c>O </c><c>     16.00000000</c><c>      6.00000000</c><c>  PAW_PBE O 08Apr2002                   </c></rc>
    <rc><c>  16</c><c>Ir</c><c>    192.22000000</c><c>      9.00000000</c><c>  PAW_PBE Ir 06Sep2000                  </c></rc>
    <rc><c>  32</c><c>O </c><c>     16.00000000</c><c>      6.00000000</c><c>  PAW_PBE O 08Apr2002                   </c></rc>
   </set>
  </array>
 </atominfo>
 <structure name="initialpos" >
  <crystal>
   <varray name="basis" >
    <v>      12.80853200       0.00000000       0.00000000 </v>
    <v>       0.00000000       6.47024300       0.00000000 </v>
    <v>       0.00000000       0.00000000      25.88097200 </v>
   </varray>
   <i name="volume">   2144.86781344 </i>
   <varray name="rec_basis" >
    <v>       0.07807296       0.00000000       0.00000000 </v>
    <v>       0.00000000       0.15455370       0.00000000 </v>
    <v>       0.00000000       0.00000000       0.03863843 </v>
   </varray>
  </crystal>
  <varray name="positions" >
   <v>       0.12500000       0.50000000       0.18750000 </v>
   <v>       0.37500000       0.50000000       0.18750000 </v>
   <v>       0.12500000       0.00000000       0.06250000 </v>
   <v>       0.37500000       0.00000000       0.06250000 </v>
   <v>       0.00000000       0.50000000       0.06250000 </v>
   <v>       0.25000000       0.50000000       0.06250000 </v>
   <v>       0.00000000       0.00000000       0.18750000 </v>
   <v>       0.25000000       0.00000000       0.18750000 </v>
   <v>       0.12502556       0.50000000       0.43786970 </v>
   <v>       0.37499778       0.50000000       0.43785475 </v>
   <v>       0.12512550       0.00000000       0.31274608 </v>
   <v>       0.37490434       0.00000000       0.31274676 </v>
   <v>       0.00019612       0.50000000       0.31278633 </v>
   <v>       0.25001487       0.50000000       0.31279205 </v>
   <v>       0.99988716       0.00000000       0.44193929 </v>
   <v>       0.25002350       0.00000000       0.44123418 </v>
   <v>       0.00000000       0.50000000       0.13961000 </v>
   <v>       0.25000000       0.50000000       0.13961000 </v>
   <v>       0.00000000       0.00000000       0.01461000 </v>
   <v>       0.25000000       0.00000000       0.01461000 </v>
   <v>       0.12500000       0.80844000       0.18750000 </v>
   <v>       0.37500000       0.80844000       0.18750000 </v>
   <v>       0.12500000       0.30844000       0.06250000 </v>
   <v>       0.37500000       0.30844000       0.06250000 </v>
   <v>       0.00000000       0.50000000       0.23539000 </v>
   <v>       0.25000000       0.50000000       0.23539000 </v>
   <v>       0.00000000       0.00000000       0.11039000 </v>
   <v>       0.25000000       0.00000000       0.11039000 </v>
   <v>       0.12500000       0.19156000       0.18750000 </v>
   <v>       0.37500000       0.19156000       0.18750000 </v>
   <v>       0.12500000       0.69156000       0.06250000 </v>
   <v>       0.37500000       0.69156000       0.06250000 </v>
   <v>       0.00011515       0.50000000       0.38937919 </v>
   <v>       0.25001536       0.50000000       0.38936571 </v>
   <v>       0.00018448       0.00000000       0.26450989 </v>
   <v>       0.25001497       0.00000000       0.26477199 </v>
   <v>       0.12479855       0.80885966       0.43610376 </v>
   <v>       0.37523258       0.80888107       0.43608605 </v>
   <v>       0.12491836       0.30760594       0.31240167 </v>
   <v>       0.37511449       0.30761960       0.31239843 </v>
   <v>       0.00043576       0.50000000       0.48352794 </v>
   <v>       0.25002697       0.50000000       0.48332355 </v>
   <v>       0.99990211       0.00000000       0.36088158 </v>
   <v>       0.25001768       0.00000000       0.36058837 </v>
   <v>       0.12479855       0.19114034       0.43610376 </v>
   <v>       0.37523258       0.19111893       0.43608605 </v>
   <v>       0.12491836       0.69239406       0.31240167 </v>
   <v>       0.37511449       0.69238040       0.31239843 </v>
   <v>       0.24999477       0.00000000       0.51061074 </v>
   <v>       0.00207477       0.00000000       0.51128240 </v>
   <v>       0.62500000       0.50000000       0.18750000 </v>
   <v>       0.87500000       0.50000000       0.18750000 </v>
   <v>       0.62500000       0.00000000       0.06250000 </v>
   <v>       0.87500000       0.00000000       0.06250000 </v>
   <v>       0.50000000       0.50000000       0.06250000 </v>
   <v>       0.75000000       0.50000000       0.06250000 </v>
   <v>       0.50000000       0.00000000       0.18750000 </v>
   <v>       0.75000000       0.00000000       0.18750000 </v>
   <v>       0.62484849       0.50000000       0.43822934 </v>
   <v>       0.87518847       0.50000000       0.43821024 </v>
   <v>       0.62356526       0.00000000       0.31234243 </v>
   <v>       0.87646753       0.00000000       0.31233803 </v>
   <v>       0.49984711       0.50000000       0.31278849 </v>
   <v>       0.75001914       0.50000000       0.31299200 </v>
   <v>       0.50013497       0.00000000       0.44196780 </v>
   <v>       0.74999677       0.00000000       0.43394700 </v>
   <v>       0.50000000       0.50000000       0.13961000 </v>
   <v>       0.75000000       0.50000000       0.13961000 </v>
   <v>       0.50000000       0.00000000       0.01461000 </v>
   <v>       0.75000000       0.00000000       0.01461000 </v>
   <v>       0.62500000       0.80844000       0.18750000 </v>
   <v>       0.87500000       0.80844000       0.18750000 </v>
   <v>       0.62500000       0.30844000       0.06250000 </v>
   <v>       0.87500000       0.30844000       0.06250000 </v>
   <v>       0.50000000       0.50000000       0.23539000 </v>
   <v>       0.75000000       0.50000000       0.23539000 </v>
   <v>       0.50000000       0.00000000       0.11039000 </v>
   <v>       0.75000000       0.00000000       0.11039000 </v>
   <v>       0.62500000       0.19156000       0.18750000 </v>
   <v>       0.87500000       0.19156000       0.18750000 </v>
   <v>       0.62500000       0.69156000       0.06250000 </v>
   <v>       0.87500000       0.69156000       0.06250000 </v>
   <v>       0.49991195       0.50000000       0.38938558 </v>
   <v>       0.75001646       0.50000000       0.38966848 </v>
   <v>       0.49982793       0.00000000       0.26451790 </v>
   <v>       0.75000468       0.00000000       0.26454417 </v>
   <v>       0.62529360       0.80892089       0.43809901 </v>
   <v>       0.87472422       0.80897330       0.43810320 </v>
   <v>       0.62457879       0.30812319       0.31266525 </v>
   <v>       0.87545925       0.30817210       0.31266331 </v>
   <v>       0.49949300       0.50000000       0.48352120 </v>
   <v>       0.50013232       0.00000000       0.36089611 </v>
   <v>       0.75002097       0.00000000       0.35910786 </v>
   <v>       0.62529360       0.19107911       0.43809901 </v>
   <v>       0.87472422       0.19102670       0.43810320 </v>
   <v>       0.62457879       0.69187681       0.31266525 </v>
   <v>       0.87545925       0.69182790       0.31266331 </v>
   <v>       0.49782902       0.00000000       0.51130536 </v>
  </varray>
  <varray name="selective"  type="logical" >
   <v type="logical" >  F  F  F </v>
   <v type="logical" >  F  F  F </v>
   <v type="logical" >  F  F  F </v>
   <v type="logical" >  F  F  F </v>
   <v type="logical" >  F  F  F </v>
   <v type="logical" >  F  F  F </v>
   <v type="logical" >  F  F  F </v>
   <v type="logical" >  F  F  F </v>
   <v type="logical" >  T  T  T </v>
   <v type="logical" >  T  T  T </v>
   <v type="logical" >  T  T  T </v>
   <v type="logical" >  T  T  T </v>
   <v type="logical" >  T  T  T </v>
   <v type="logical" >  T  T  T </v>
   <v type="logical" >  T  T  T </v>
   <v type="logical" >  T  T  T </v>
   <v type="logical" >  F  F  F </v>
   <v type="logical" >  F  F  F </v>
   <v type="logical" >  F  F  F </v>
   <v type="logical" >  F  F  F </v>
   <v type="logical" >  F  F  F </v>
   <v type="logical" >  F  F  F </v>
   <v type="logical" >  F  F  F </v>
   <v type="logical" >  F  F  F </v>
   <v type="logical" >  F  F  F </v>
   <v type="logical" >  F  F  F </v>
   <v type="logical" >  F  F  F </v>
   <v type="logical" >  F  F  F </v>
   <v type="logical" >  F  F  F </v>
   <v type="logical" >  F  F  F </v>
   <v type="logical" >  F  F  F </v>
   <v type="logical" >  F  F  F </v>
   <v type="logical" >  T  T  T </v>
   <v type="logical" >  T  T  T </v>
   <v type="logical" >  T  T  T </v>
   <v type="logical" >  T  T  T </v>
   <v type="logical" >  T  T  T </v>
   <v type="logical" >  T  T  T </v>
   <v type="logical" >  T  T  T </v>
   <v type="logical" >  T  T  T </v>
   <v type="logical" >  T  T  T </v>
   <v type="logical" >  T  T  T </v>
   <v type="logical" >  T  T  T </v>
   <v type="logical" >  T  T  T </v>
   <v type="logical" >  T  T  T </v>
   <v type="logical" >  T  T  T </v>
   <v type="logical" >  T  T  T </v>
   <v type="logical" >  T  T  T </v>
   <v type="logical" >  T  T  T </v>
   <v type="logical" >  T  T  T </v>
   <v type="logical" >  F  F  F </v>
   <v type="logical" >  F  F  F </v>
   <v type="logical" >  F  F  F </v>
   <v type="logical" >  F  F  F </v>
   <v type="logical" >  F  F  F </v>
   <v type="logical" >  F  F  F </v>
   <v type="logical" >  F  F  F </v>
   <v type="logical" >  F  F  F </v>
   <v type="logical" >  T  T  T </v>
   <v type="logical" >  T  T  T </v>
   <v type="logical" >  T  T  T </v>
   <v type="logical" >  T  T  T </v>
   <v type="logical" >  T  T  T </v>
   <v type="logical" >  T  T  T </v>
   <v type="logical" >  T  T  T </v>
   <v type="logical" >  T  T  T </v>
   <v type="logical" >  F  F  F </v>
   <v type="logical" >  F  F  F </v>
   <v type="logical" >  F  F  F </v>
   <v type="logical" >  F  F  F </v>
   <v type="logical" >  F  F  F </v>
   <v type="logical" >  F  F  F </v>
   <v type="logical" >  F  F  F </v>
   <v type="logical" >  F  F  F </v>
   <v type="logical" >  F  F  F </v>
   <v type="logical" >  F  F  F </v>
   <v type="logical" >  F  F  F </v>
   <v type="logical" >  F  F  F </v>
   <v type="logical" >  F  F  F </v>
   <v type="logical" >  F  F  F </v>
   <v type="logical" >  F  F  F </v>
   <v type="logical" >  F  F  F </v>
   <v type="logical" >  T  T  T </v>
   <v type="logical" >  T  T  T </v>
   <v type="logical" >  T  T  T </v>
   <v type="logical" >  T  T  T </v>
   <v type="logical" >  T  T  T </v>
   <v type="logical" >  T  T  T </v>
   <v type="logical" >  T  T  T </v>
   <v type="logical" >  T  T  T </v>
   <v type="logical" >  T  T  T </v>
   <v type="logical" >  T  T  T </v>
   <v type="logical" >  T  T  T </v>
   <v type="logical" >  T  T  T </v>
   <v type="logical" >  T  T  T </v>
   <v type="logical" >  T  T  T </v>
   <v type="logical" >  T  T  T </v>
   <v type="logical" >  T  T  T </v>
  </varray>
  <nose>
   <v>      -3.00000000       0.00000000       0.00010000       0.00010000 </v>
  </nose>
 </structure>
 <calculation>
  <scstep>
   <time name="dav">   12.83   12.88</time>
   <time name="total">   12.94   12.99</time>
   <dipole>
    <v name="dipole">      0.00000000       0.00000000      -0.00000757 </v>
    <i name="Tr[quadrupol]"> -12685.34772210 </i>
    <i name="Echarged">      0.00000000 </i>
    <i name="Edipol_quadrupol">      0.00000000 </i>
    <i name="Eion">      0.00000000 </i>
   </dipole>
   <energy>
    <i name="alphaZ">   1780.31085167 </i>
    <i name="ewald"> 229833.36331076 </i>
    <i name="hartreedc">-275854.07988490 </i>
    <i name="XCdc">   1256.65498293 </i>
    <i name="pawpsdc">  40555.36544842 </i>
    <i name="pawaedc"> -39336.07891203 </i>
    <i name="eentropy">     -0.04962116 </i>
    <i name="bandstr">   2961.26396086 </i>
    <i name="atom">  46433.46497963 </i>
    <i name="e_fr_energy">   7630.21511619 </i>
    <i name="e_wo_entrp">   7630.26473735 </i>
    <i name="e_0_energy">   7630.23992677 </i>
   </energy>
  </scstep>
  <scstep>
   <time name="dav">   13.29   13.33</time>
   <time name="total">   13.29   13.33</time>
   <dipole>
    <v name="dipole">      0.00000000       0.00000000      -0.00000757 </v>
    <i name="Tr[quadrupol]"> -12685.34772210 </i>
    <i name="Echarged">      0.00000000 </i>
    <i name="Edipol_quadrupol">      0.00000000 </i>
    <i name="Eion">      0.00000000 </i>
   </dipole>
   <energy>
    <i name="e_fr_energy">    537.74238931 </i>
    <i name="e_wo_entrp">    537.78986216 </i>
    <i name="e_0_energy">    537.76612573 </i>
   </energy>
  </scstep>
  <scstep>
   <time name="dav">   15.31   15.36</time>
   <time name="total">   15.31   15.36</time>
   <dipole>
    <v name="dipole">      0.00000000       0.00000000      -0.00000757 </v>
    <i name="Tr[quadrupol]"> -12685.34772210 </i>
    <i name="Echarged">      0.00000000 </i>
    <i name="Edipol_quadrupol">      0.00000000 </i>
    <i name="Eion">      0.00000000 </i>
   </dipole>
   <energy>
    <i name="e_fr_energy">   -684.93500185 </i>
    <i name="e_wo_entrp">   -684.86241124 </i>
    <i name="e_0_energy">   -684.89870655 </i>
   </energy>
  </scstep>
  <scstep>
   <time name="dav">   15.43   15.47</time>
   <time name="total">   15.43   15.48</time>
   <dipole>
    <v name="dipole">      0.00000000       0.00000000      -0.00000757 </v>
    <i name="Tr[quadrupol]"> -12685.34772210 </i>
    <i name="Echarged">      0.00000000 </i>
    <i name="Edipol_quadrupol">      0.00000000 </i>
    <i name="Eion">      0.00000000 </i>
   </dipole>
   <energy>
    <i name="e_fr_energy">   -757.00997547 </i>
    <i name="e_wo_entrp">   -756.92411002 </i>
    <i name="e_0_energy">   -756.96704274 </i>
   </energy>
  </scstep>
  <scstep>
   <time name="dav">   15.59   15.65</time>
   <time name="total">   15.91   15.98</time>
   <dipole>
    <v name="dipole">      0.00000000       0.00000000      -0.00000757 </v>
    <i name="Tr[quadrupol]"> -12685.34772210 </i>
    <i name="Echarged">      0.00000000 </i>
    <i name="Edipol_quadrupol">      0.00000000 </i>
    <i name="Eion">      0.00000000 </i>
   </dipole>
   <energy>
    <i name="e_fr_energy">   -759.29734676 </i>
    <i name="e_wo_entrp">   -759.21078129 </i>
    <i name="e_0_energy">   -759.25406403 </i>
   </energy>
  </scstep>
  <scstep>
   <time name="diag">    1.79    1.80</time>
   <time name="diis">    4.92    4.93</time>
   <time name="orth">    0.55    0.56</time>
   <time name="total">    7.69    7.72</time>
   <dipole>
    <v name="dipole">      0.00000000       0.00000000       1.13341637 </v>
    <i name="Tr[quadrupol]"> -12671.17732419 </i>
    <i name="Echarged">      0.00000000 </i>
    <i name="Edipol_quadrupol">      0.00000000 </i>
    <i name="Eion">      0.00000000 </i>
   </dipole>
   <energy>
    <i name="e_fr_energy">   -652.07671103 </i>
    <i name="e_wo_entrp">   -652.00519281 </i>
    <i name="e_0_energy">   -652.04095192 </i>
   </energy>
  </scstep>
  <scstep>
   <time name="diag">    1.79    1.79</time>
   <time name="diis">    5.68    5.70</time>
   <time name="orth">    0.55    0.56</time>
   <time name="total">    8.45    8.47</time>
   <dipole>
    <v name="dipole">      0.00000000       0.00000000     -12.39450568 </v>
    <i name="Tr[quadrupol]"> -12715.45571377 </i>
    <i name="Echarged">      0.00000000 </i>
    <i name="Edipol_quadrupol">      0.00000000 </i>
    <i name="Eion">      0.00000000 </i>
   </dipole>
   <energy>
    <i name="e_fr_energy">  -2079.40113063 </i>
    <i name="e_wo_entrp">  -2079.36108731 </i>
    <i name="e_0_energy">  -2079.38110897 </i>
   </energy>
  </scstep>
  <scstep>
   <time name="diag">    1.79    1.79</time>
   <time name="diis">    6.24    6.25</time>
   <time name="orth">    0.55    0.56</time>
   <time name="total">    9.00    9.03</time>
   <dipole>
    <v name="dipole">      0.00000000       0.00000000     -12.00642550 </v>
    <i name="Tr[quadrupol]"> -12716.43869283 </i>
    <i name="Echarged">      0.00000000 </i>
    <i name="Edipol_quadrupol">      0.00000000 </i>
    <i name="Eion">      0.00000000 </i>
   </dipole>
   <energy>
    <i name="e_fr_energy">  -2035.93167691 </i>
    <i name="e_wo_entrp">  -2035.87560248 </i>
    <i name="e_0_energy">  -2035.90363970 </i>
   </energy>
  </scstep>
  <scstep>
   <time name="diag">    1.79    1.79</time>
   <time name="diis">    4.89    4.90</time>
   <time name="orth">    0.55    0.55</time>
   <time name="total">    7.65    7.68</time>
   <dipole>
    <v name="dipole">      0.00000000       0.00000000       4.56863361 </v>
    <i name="Tr[quadrupol]"> -12662.60979679 </i>
    <i name="Echarged">      0.00000000 </i>
    <i name="Edipol_quadrupol">      0.00000000 </i>
    <i name="Eion">      0.00000000 </i>
   </dipole>
   <energy>
    <i name="e_fr_energy">   -739.45035627 </i>
    <i name="e_wo_entrp">   -739.38892624 </i>
    <i name="e_0_energy">   -739.41964126 </i>
   </energy>
  </scstep>
  <scstep>
   <time name="diag">    1.79    1.79</time>
   <time name="diis">    5.00    5.01</time>
   <time name="orth">    0.55    0.55</time>
   <time name="total">    7.76    7.78</time>
   <dipole>
    <v name="dipole">      0.00000000       0.00000000       4.58320643 </v>
    <i name="Tr[quadrupol]"> -12658.93990183 </i>
    <i name="Echarged">      0.00000000 </i>
    <i name="Edipol_quadrupol">      0.00000000 </i>
    <i name="Eion">      0.00000000 </i>
   </dipole>
   <energy>
    <i name="e_fr_energy">   -713.97165944 </i>
    <i name="e_wo_entrp">   -713.90047497 </i>
    <i name="e_0_energy">   -713.93606720 </i>
   </energy>
  </scstep>
  <scstep>
   <time name="diag">    1.79    1.80</time>
   <time name="diis">    4.93    4.94</time>
   <time name="orth">    0.55    0.56</time>
   <time name="total">    7.70    7.72</time>
   <dipole>
    <v name="dipole">      0.00000000       0.00000000       6.25214427 </v>
    <i name="Tr[quadrupol]"> -12641.32226439 </i>
    <i name="Echarged">      0.00000000 </i>
    <i name="Edipol_quadrupol">      0.00000000 </i>
    <i name="Eion">      0.00000000 </i>
   </dipole>
   <energy>
    <i name="e_fr_energy">   -757.65021367 </i>
    <i name="e_wo_entrp">   -757.59200487 </i>
    <i name="e_0_energy">   -757.62110927 </i>
   </energy>
  </scstep>
  <scstep>
   <time name="diag">    1.79    1.80</time>
   <time name="diis">    4.95    4.96</time>
   <time name="orth">    0.55    0.56</time>
   <time name="total">    7.72    7.74</time>
   <dipole>
    <v name="dipole">      0.00000000       0.00000000       7.65799373 </v>
    <i name="Tr[quadrupol]"> -12597.65528349 </i>
    <i name="Echarged">      0.00000000 </i>
    <i name="Edipol_quadrupol">      0.00000000 </i>
    <i name="Eion">      0.00000000 </i>
   </dipole>
   <energy>
    <i name="e_fr_energy">   -689.71534637 </i>
    <i name="e_wo_entrp">   -689.67085088 </i>
    <i name="e_0_energy">   -689.69309862 </i>
   </energy>
  </scstep>
  <scstep>
   <time name="diag">    1.79    1.80</time>
   <time name="diis">    4.95    4.98</time>
   <time name="orth">    0.55    0.56</time>
   <time name="total">    7.72    7.76</time>
   <dipole>
    <v name="dipole">      0.00000000       0.00000000       6.15581600 </v>
    <i name="Tr[quadrupol]"> -12599.94518653 </i>
    <i name="Echarged">      0.00000000 </i>
    <i name="Edipol_quadrupol">      0.00000000 </i>
    <i name="Eion">      0.00000000 </i>
   </dipole>
   <energy>
    <i name="e_fr_energy">   -625.34371885 </i>
    <i name="e_wo_entrp">   -625.26615461 </i>
    <i name="e_0_energy">   -625.30493673 </i>
   </energy>
  </scstep>
  <scstep>
   <time name="diag">    1.80    1.81</time>
   <time name="diis">    4.90    4.91</time>
   <time name="orth">    0.56    0.56</time>
   <time name="total">    7.68    7.70</time>
   <dipole>
    <v name="dipole">      0.00000000       0.00000000       5.68990415 </v>
    <i name="Tr[quadrupol]"> -12603.39352249 </i>
    <i name="Echarged">      0.00000000 </i>
    <i name="Edipol_quadrupol">      0.00000000 </i>
    <i name="Eion">      0.00000000 </i>
   </dipole>
   <energy>
    <i name="e_fr_energy">   -613.10057655 </i>
    <i name="e_wo_entrp">   -613.02400597 </i>
    <i name="e_0_energy">   -613.06229126 </i>
   </energy>
  </scstep>
  <scstep>
   <time name="diag">    1.80    1.80</time>
   <time name="diis">    4.92    4.93</time>
   <time name="orth">    0.55    0.56</time>
   <time name="total">    7.69    7.72</time>
   <dipole>
    <v name="dipole">      0.00000000       0.00000000       4.95516245 </v>
    <i name="Tr[quadrupol]"> -12613.66425430 </i>
    <i name="Echarged">      0.00000000 </i>
    <i name="Edipol_quadrupol">      0.00000000 </i>
    <i name="Eion">      0.00000000 </i>
   </dipole>
   <energy>
    <i name="e_fr_energy">   -612.14146304 </i>
    <i name="e_wo_entrp">   -612.06820515 </i>
    <i name="e_0_energy">   -612.10483409 </i>
   </energy>
  </scstep>
  <scstep>
   <time name="diag">    1.79    1.80</time>
   <time name="diis">    4.90    4.91</time>
   <time name="orth">    0.56    0.56</time>
   <time name="total">    7.67    7.70</time>
   <dipole>
    <v name="dipole">      0.00000000       0.00000000       5.59760304 </v>
    <i name="Tr[quadrupol]"> -12615.13627661 </i>
    <i name="Echarged">      0.00000000 </i>
    <i name="Edipol_quadrupol">      0.00000000 </i>
    <i name="Eion">      0.00000000 </i>
   </dipole>
   <energy>
    <i name="e_fr_energy">   -619.28919090 </i>
    <i name="e_wo_entrp">   -619.22553932 </i>
    <i name="e_0_energy">   -619.25736511 </i>
   </energy>
  </scstep>
  <scstep>
   <time name="diag">    1.79    1.79</time>
   <time name="diis">    4.94    4.95</time>
   <time name="orth">    0.56    0.56</time>
   <time name="total">    7.70    7.72</time>
   <dipole>
    <v name="dipole">      0.00000000       0.00000000       4.97035250 </v>
    <i name="Tr[quadrupol]"> -12615.30716829 </i>
    <i name="Echarged">      0.00000000 </i>
    <i name="Edipol_quadrupol">      0.00000000 </i>
    <i name="Eion">      0.00000000 </i>
   </dipole>
   <energy>
    <i name="e_fr_energy">   -609.79848225 </i>
    <i name="e_wo_entrp">   -609.71237315 </i>
    <i name="e_0_energy">   -609.75542770 </i>
   </energy>
  </scstep>
  <scstep>
   <time name="diag">    1.79    1.80</time>
   <time name="diis">    4.88    4.90</time>
   <time name="orth">    0.56    0.56</time>
   <time name="total">    7.67    7.69</time>
   <dipole>
    <v name="dipole">      0.00000000       0.00000000       4.78654243 </v>
    <i name="Tr[quadrupol]"> -12616.44857878 </i>
    <i name="Echarged">      0.00000000 </i>
    <i name="Edipol_quadrupol">      0.00000000 </i>
    <i name="Eion">      0.00000000 </i>
   </dipole>
   <energy>
    <i name="e_fr_energy">   -609.34177249 </i>
    <i name="e_wo_entrp">   -609.25864001 </i>
    <i name="e_0_energy">   -609.30020625 </i>
   </energy>
  </scstep>
  <scstep>
   <time name="diag">    1.79    1.80</time>
   <time name="diis">    4.90    4.92</time>
   <time name="orth">    0.55    0.56</time>
   <time name="total">    7.67    7.69</time>
   <dipole>
    <v name="dipole">      0.00000000       0.00000000       4.71358321 </v>
    <i name="Tr[quadrupol]"> -12617.74091248 </i>
    <i name="Echarged">      0.00000000 </i>
    <i name="Edipol_quadrupol">      0.00000000 </i>
    <i name="Eion">      0.00000000 </i>
   </dipole>
   <energy>
    <i name="e_fr_energy">   -610.31676608 </i>
    <i name="e_wo_entrp">   -610.23664744 </i>
    <i name="e_0_energy">   -610.27670676 </i>
   </energy>
  </scstep>
  <scstep>
   <time name="diag">    1.79    1.80</time>
   <time name="diis">    4.88    4.89</time>
   <time name="orth">    0.55    0.56</time>
   <time name="total">    7.65    7.67</time>
   <dipole>
    <v name="dipole">      0.00000000       0.00000000       4.51274971 </v>
    <i name="Tr[quadrupol]"> -12618.38783013 </i>
    <i name="Echarged">      0.00000000 </i>
    <i name="Edipol_quadrupol">      0.00000000 </i>
    <i name="Eion">      0.00000000 </i>
   </dipole>
   <energy>
    <i name="e_fr_energy">   -612.88171928 </i>
    <i name="e_wo_entrp">   -612.81532668 </i>
    <i name="e_0_energy">   -612.84852298 </i>
   </energy>
  </scstep>
  <scstep>
   <time name="diag">    1.79    1.79</time>
   <time name="diis">    4.91    4.93</time>
   <time name="orth">    0.56    0.56</time>
   <time name="total">    7.69    7.71</time>
   <dipole>
    <v name="dipole">      0.00000000       0.00000000       4.44839744 </v>
    <i name="Tr[quadrupol]"> -12619.87122238 </i>
    <i name="Echarged">      0.00000000 </i>
    <i name="Edipol_quadrupol">      0.00000000 </i>
    <i name="Eion">      0.00000000 </i>
   </dipole>
   <energy>
    <i name="e_fr_energy">   -615.70197348 </i>
    <i name="e_wo_entrp">   -615.62362938 </i>
    <i name="e_0_energy">   -615.66280143 </i>
   </energy>
  </scstep>
  <scstep>
   <time name="diag">    1.79    1.79</time>
   <time name="diis">    4.89    4.91</time>
   <time name="orth">    0.55    0.56</time>
   <time name="total">    7.66    7.68</time>
   <dipole>
    <v name="dipole">      0.00000000       0.00000000       4.36279042 </v>
    <i name="Tr[quadrupol]"> -12621.70821350 </i>
    <i name="Echarged">      0.00000000 </i>
    <i name="Edipol_quadrupol">      0.00000000 </i>
    <i name="Eion">      0.00000000 </i>
   </dipole>
   <energy>
    <i name="e_fr_energy">   -618.07236741 </i>
    <i name="e_wo_entrp">   -617.99097626 </i>
    <i name="e_0_energy">   -618.03167184 </i>
   </energy>
  </scstep>
  <scstep>
   <time name="diag">    1.79    1.79</time>
   <time name="diis">    4.88    4.92</time>
   <time name="orth">    0.55    0.55</time>
   <time name="total">    7.65    7.69</time>
   <dipole>
    <v name="dipole">      0.00000000       0.00000000       4.09470145 </v>
    <i name="Tr[quadrupol]"> -12621.75445712 </i>
    <i name="Echarged">      0.00000000 </i>
    <i name="Edipol_quadrupol">      0.00000000 </i>
    <i name="Eion">      0.00000000 </i>
   </dipole>
   <energy>
    <i name="e_fr_energy">   -618.30632176 </i>
    <i name="e_wo_entrp">   -618.24165038 </i>
    <i name="e_0_energy">   -618.27398607 </i>
   </energy>
  </scstep>
  <scstep>
   <time name="diag">    1.79    1.80</time>
   <time name="diis">    4.91    4.92</time>
   <time name="orth">    0.55    0.55</time>
   <time name="total">    7.67    7.70</time>
   <dipole>
    <v name="dipole">      0.00000000       0.00000000       4.09411615 </v>
    <i name="Tr[quadrupol]"> -12622.41287230 </i>
    <i name="Echarged">      0.00000000 </i>
    <i name="Edipol_quadrupol">      0.00000000 </i>
    <i name="Eion">      0.00000000 </i>
   </dipole>
   <energy>
    <i name="e_fr_energy">   -618.88977095 </i>
    <i name="e_wo_entrp">   -618.80889041 </i>
    <i name="e_0_energy">   -618.84933068 </i>
   </energy>
  </scstep>
  <scstep>
   <time name="diag">    1.79    1.79</time>
   <time name="diis">    4.96    4.97</time>
   <time name="orth">    0.55    0.55</time>
   <time name="total">    7.73    7.75</time>
   <dipole>
    <v name="dipole">      0.00000000       0.00000000       3.95096852 </v>
    <i name="Tr[quadrupol]"> -12622.87316733 </i>
    <i name="Echarged">      0.00000000 </i>
    <i name="Edipol_quadrupol">      0.00000000 </i>
    <i name="Eion">      0.00000000 </i>
   </dipole>
   <energy>
    <i name="e_fr_energy">   -618.92656851 </i>
    <i name="e_wo_entrp">   -618.85432306 </i>
    <i name="e_0_energy">   -618.89044578 </i>
   </energy>
  </scstep>
  <scstep>
   <time name="diag">    1.79    1.79</time>
   <time name="diis">    4.97    4.98</time>
   <time name="orth">    0.55    0.55</time>
   <time name="total">    7.73    7.76</time>
   <dipole>
    <v name="dipole">      0.00000000       0.00000000       3.80004490 </v>
    <i name="Tr[quadrupol]"> -12623.54505859 </i>
    <i name="Echarged">      0.00000000 </i>
    <i name="Edipol_quadrupol">      0.00000000 </i>
    <i name="Eion">      0.00000000 </i>
   </dipole>
   <energy>
    <i name="e_fr_energy">   -619.15354864 </i>
    <i name="e_wo_entrp">   -619.08720390 </i>
    <i name="e_0_energy">   -619.12037627 </i>
   </energy>
  </scstep>
  <scstep>
   <time name="diag">    1.79    1.79</time>
   <time name="diis">    4.92    4.94</time>
   <time name="orth">    0.55    0.55</time>
   <time name="total">    7.68    7.72</time>
   <dipole>
    <v name="dipole">      0.00000000       0.00000000       3.60793254 </v>
    <i name="Tr[quadrupol]"> -12624.85471631 </i>
    <i name="Echarged">      0.00000000 </i>
    <i name="Edipol_quadrupol">      0.00000000 </i>
    <i name="Eion">      0.00000000 </i>
   </dipole>
   <energy>
    <i name="e_fr_energy">   -620.03025911 </i>
    <i name="e_wo_entrp">   -619.97050157 </i>
    <i name="e_0_energy">   -620.00038034 </i>
   </energy>
  </scstep>
  <scstep>
   <time name="diag">    1.79    1.79</time>
   <time name="diis">    4.93    4.95</time>
   <time name="orth">    0.55    0.55</time>
   <time name="total">    7.70    7.73</time>
   <dipole>
    <v name="dipole">      0.00000000       0.00000000       3.35792233 </v>
    <i name="Tr[quadrupol]"> -12627.00108001 </i>
    <i name="Echarged">      0.00000000 </i>
    <i name="Edipol_quadrupol">      0.00000000 </i>
    <i name="Eion">      0.00000000 </i>
   </dipole>
   <energy>
    <i name="e_fr_energy">   -621.16316848 </i>
    <i name="e_wo_entrp">   -621.09939555 </i>
    <i name="e_0_energy">   -621.13128201 </i>
   </energy>
  </scstep>
  <scstep>
   <time name="diag">    1.79    1.79</time>
   <time name="diis">    4.91    4.93</time>
   <time name="orth">    0.55    0.55</time>
   <time name="total">    7.68    7.70</time>
   <dipole>
    <v name="dipole">      0.00000000       0.00000000       3.05736704 </v>
    <i name="Tr[quadrupol]"> -12629.61338783 </i>
    <i name="Echarged">      0.00000000 </i>
    <i name="Edipol_quadrupol">      0.00000000 </i>
    <i name="Eion">      0.00000000 </i>
   </dipole>
   <energy>
    <i name="e_fr_energy">   -622.27689154 </i>
    <i name="e_wo_entrp">   -622.21835410 </i>
    <i name="e_0_energy">   -622.24762282 </i>
   </energy>
  </scstep>
  <scstep>
   <time name="diag">    1.78    1.79</time>
   <time name="diis">    4.98    4.99</time>
   <time name="orth">    0.55    0.55</time>
   <time name="total">    7.74    7.76</time>
   <dipole>
    <v name="dipole">      0.00000000       0.00000000       2.80425169 </v>
    <i name="Tr[quadrupol]"> -12632.29364648 </i>
    <i name="Echarged">      0.00000000 </i>
    <i name="Edipol_quadrupol">      0.00000000 </i>
    <i name="Eion">      0.00000000 </i>
   </dipole>
   <energy>
    <i name="e_fr_energy">   -623.60332129 </i>
    <i name="e_wo_entrp">   -623.54669165 </i>
    <i name="e_0_energy">   -623.57500647 </i>
   </energy>
  </scstep>
  <scstep>
   <time name="diag">    1.78    1.79</time>
   <time name="diis">    4.93    4.95</time>
   <time name="orth">    0.55    0.55</time>
   <time name="total">    7.70    7.72</time>
   <dipole>
    <v name="dipole">      0.00000000       0.00000000       2.62973049 </v>
    <i name="Tr[quadrupol]"> -12634.90019606 </i>
    <i name="Echarged">      0.00000000 </i>
    <i name="Edipol_quadrupol">      0.00000000 </i>
    <i name="Eion">      0.00000000 </i>
   </dipole>
   <energy>
    <i name="e_fr_energy">   -624.52972285 </i>
    <i name="e_wo_entrp">   -624.47769151 </i>
    <i name="e_0_energy">   -624.50370718 </i>
   </energy>
  </scstep>
  <scstep>
   <time name="diag">    1.78    1.79</time>
   <time name="diis">    4.91    4.93</time>
   <time name="orth">    0.55    0.55</time>
   <time name="total">    7.68    7.70</time>
   <dipole>
    <v name="dipole">      0.00000000       0.00000000       2.52505186 </v>
    <i name="Tr[quadrupol]"> -12636.34643431 </i>
    <i name="Echarged">      0.00000000 </i>
    <i name="Edipol_quadrupol">      0.00000000 </i>
    <i name="Eion">      0.00000000 </i>
   </dipole>
   <energy>
    <i name="e_fr_energy">   -624.77388195 </i>
    <i name="e_wo_entrp">   -624.72007031 </i>
    <i name="e_0_energy">   -624.74697613 </i>
   </energy>
  </scstep>
  <scstep>
   <time name="diag">    1.78    1.80</time>
   <time name="diis">    4.90    4.91</time>
   <time name="orth">    0.55    0.55</time>
   <time name="total">    7.67    7.70</time>
   <dipole>
    <v name="dipole">      0.00000000       0.00000000       2.37623320 </v>
    <i name="Tr[quadrupol]"> -12638.49996547 </i>
    <i name="Echarged">      0.00000000 </i>
    <i name="Edipol_quadrupol">      0.00000000 </i>
    <i name="Eion">      0.00000000 </i>
   </dipole>
   <energy>
    <i name="e_fr_energy">   -625.02960717 </i>
    <i name="e_wo_entrp">   -624.97687763 </i>
    <i name="e_0_energy">   -625.00324240 </i>
   </energy>
  </scstep>
  <scstep>
   <time name="diag">    1.78    1.78</time>
   <time name="diis">    4.93    4.95</time>
   <time name="orth">    0.55    0.55</time>
   <time name="total">    7.70    7.72</time>
   <dipole>
    <v name="dipole">      0.00000000       0.00000000       2.20634864 </v>
    <i name="Tr[quadrupol]"> -12640.70639184 </i>
    <i name="Echarged">      0.00000000 </i>
    <i name="Edipol_quadrupol">      0.00000000 </i>
    <i name="Eion">      0.00000000 </i>
   </dipole>
   <energy>
    <i name="e_fr_energy">   -625.08564387 </i>
    <i name="e_wo_entrp">   -625.02899744 </i>
    <i name="e_0_energy">   -625.05732066 </i>
   </energy>
  </scstep>
  <scstep>
   <time name="diag">    1.78    1.79</time>
   <time name="diis">    4.90    4.92</time>
   <time name="orth">    0.55    0.55</time>
   <time name="total">    7.68    7.70</time>
   <dipole>
    <v name="dipole">      0.00000000       0.00000000       2.10805813 </v>
    <i name="Tr[quadrupol]"> -12642.03121821 </i>
    <i name="Echarged">      0.00000000 </i>
    <i name="Edipol_quadrupol">      0.00000000 </i>
    <i name="Eion">      0.00000000 </i>
   </dipole>
   <energy>
    <i name="e_fr_energy">   -625.08019748 </i>
    <i name="e_wo_entrp">   -625.02013377 </i>
    <i name="e_0_energy">   -625.05016562 </i>
   </energy>
  </scstep>
  <scstep>
   <time name="diag">    1.78    1.78</time>
   <time name="diis">    4.91    4.92</time>
   <time name="orth">    0.55    0.55</time>
   <time name="total">    7.68    7.70</time>
   <dipole>
    <v name="dipole">      0.00000000       0.00000000       2.01769717 </v>
    <i name="Tr[quadrupol]"> -12643.47143670 </i>
    <i name="Echarged">      0.00000000 </i>
    <i name="Edipol_quadrupol">      0.00000000 </i>
    <i name="Eion">      0.00000000 </i>
   </dipole>
   <energy>
    <i name="e_fr_energy">   -625.05494762 </i>
    <i name="e_wo_entrp">   -624.99326626 </i>
    <i name="e_0_energy">   -625.02410694 </i>
   </energy>
  </scstep>
  <scstep>
   <time name="diag">    1.78    1.79</time>
   <time name="diis">    4.92    4.93</time>
   <time name="orth">    0.55    0.55</time>
   <time name="total">    7.69    7.71</time>
   <dipole>
    <v name="dipole">      0.00000000       0.00000000       1.92441286 </v>
    <i name="Tr[quadrupol]"> -12644.86275704 </i>
    <i name="Echarged">      0.00000000 </i>
    <i name="Edipol_quadrupol">      0.00000000 </i>
    <i name="Eion">      0.00000000 </i>
   </dipole>
   <energy>
    <i name="e_fr_energy">   -625.03934963 </i>
    <i name="e_wo_entrp">   -624.97520437 </i>
    <i name="e_0_energy">   -625.00727700 </i>
   </energy>
  </scstep>
  <scstep>
   <time name="diag">    1.78    1.78</time>
   <time name="diis">    4.89    4.90</time>
   <time name="orth">    0.55    0.55</time>
   <time name="total">    7.66    7.68</time>
   <dipole>
    <v name="dipole">      0.00000000       0.00000000       1.83865237 </v>
    <i name="Tr[quadrupol]"> -12646.33874710 </i>
    <i name="Echarged">      0.00000000 </i>
    <i name="Edipol_quadrupol">      0.00000000 </i>
    <i name="Eion">      0.00000000 </i>
   </dipole>
   <energy>
    <i name="e_fr_energy">   -625.02746276 </i>
    <i name="e_wo_entrp">   -624.96264657 </i>
    <i name="e_0_energy">   -624.99505466 </i>
   </energy>
  </scstep>
  <scstep>
   <time name="diag">    1.78    1.79</time>
   <time name="diis">    4.91    4.92</time>
   <time name="orth">    0.55    0.55</time>
   <time name="total">    7.68    7.70</time>
   <dipole>
    <v name="dipole">      0.00000000       0.00000000       1.73020150 </v>
    <i name="Tr[quadrupol]"> -12648.30510493 </i>
    <i name="Echarged">      0.00000000 </i>
    <i name="Edipol_quadrupol">      0.00000000 </i>
    <i name="Eion">      0.00000000 </i>
   </dipole>
   <energy>
    <i name="e_fr_energy">   -625.01384094 </i>
    <i name="e_wo_entrp">   -624.94827707 </i>
    <i name="e_0_energy">   -624.98105900 </i>
   </energy>
  </scstep>
  <scstep>
   <time name="diag">    1.78    1.79</time>
   <time name="diis">    4.90    4.91</time>
   <time name="orth">    0.55    0.55</time>
   <time name="total">    7.67    7.70</time>
   <dipole>
    <v name="dipole">      0.00000000       0.00000000       1.62660439 </v>
    <i name="Tr[quadrupol]"> -12650.20520856 </i>
    <i name="Echarged">      0.00000000 </i>
    <i name="Edipol_quadrupol">      0.00000000 </i>
    <i name="Eion">      0.00000000 </i>
   </dipole>
   <energy>
    <i name="e_fr_energy">   -625.00457775 </i>
    <i name="e_wo_entrp">   -624.93826425 </i>
    <i name="e_0_energy">   -624.97142100 </i>
   </energy>
  </scstep>
  <scstep>
   <time name="diag">    1.78    1.79</time>
   <time name="diis">    4.93    4.94</time>
   <time name="orth">    0.55    0.55</time>
   <time name="total">    7.70    7.72</time>
   <dipole>
    <v name="dipole">      0.00000000       0.00000000       1.50387459 </v>
    <i name="Tr[quadrupol]"> -12652.66510075 </i>
    <i name="Echarged">      0.00000000 </i>
    <i name="Edipol_quadrupol">      0.00000000 </i>
    <i name="Eion">      0.00000000 </i>
   </dipole>
   <energy>
    <i name="e_fr_energy">   -625.00166111 </i>
    <i name="e_wo_entrp">   -624.93565465 </i>
    <i name="e_0_energy">   -624.96865788 </i>
   </energy>
  </scstep>
  <scstep>
   <time name="diag">    1.79    1.79</time>
   <time name="diis">    4.94    4.95</time>
   <time name="orth">    0.56    0.56</time>
   <time name="total">    7.72    7.74</time>
   <dipole>
    <v name="dipole">      0.00000000       0.00000000       1.34956617 </v>
    <i name="Tr[quadrupol]"> -12655.63641142 </i>
    <i name="Echarged">      0.00000000 </i>
    <i name="Edipol_quadrupol">      0.00000000 </i>
    <i name="Eion">      0.00000000 </i>
   </dipole>
   <energy>
    <i name="e_fr_energy">   -625.00603793 </i>
    <i name="e_wo_entrp">   -624.93914692 </i>
    <i name="e_0_energy">   -624.97259242 </i>
   </energy>
  </scstep>
  <scstep>
   <time name="diag">    1.79    1.79</time>
   <time name="diis">    4.94    4.95</time>
   <time name="orth">    0.55    0.55</time>
   <time name="total">    7.72    7.74</time>
   <dipole>
    <v name="dipole">      0.00000000       0.00000000       1.24514523 </v>
    <i name="Tr[quadrupol]"> -12657.79298316 </i>
    <i name="Echarged">      0.00000000 </i>
    <i name="Edipol_quadrupol">      0.00000000 </i>
    <i name="Eion">      0.00000000 </i>
   </dipole>
   <energy>
    <i name="e_fr_energy">   -625.03724781 </i>
    <i name="e_wo_entrp">   -624.96994442 </i>
    <i name="e_0_energy">   -625.00359611 </i>
   </energy>
  </scstep>
  <scstep>
   <time name="diag">    1.78    1.79</time>
   <time name="diis">    4.89    4.90</time>
   <time name="orth">    0.55    0.55</time>
   <time name="total">    7.66    7.68</time>
   <dipole>
    <v name="dipole">      0.00000000       0.00000000       1.10335289 </v>
    <i name="Tr[quadrupol]"> -12660.74798287 </i>
    <i name="Echarged">      0.00000000 </i>
    <i name="Edipol_quadrupol">      0.00000000 </i>
    <i name="Eion">      0.00000000 </i>
   </dipole>
   <energy>
    <i name="e_fr_energy">   -625.07247953 </i>
    <i name="e_wo_entrp">   -625.00431375 </i>
    <i name="e_0_energy">   -625.03839664 </i>
   </energy>
  </scstep>
  <scstep>
   <time name="diag">    1.78    1.79</time>
   <time name="diis">    4.94    4.95</time>
   <time name="orth">    0.55    0.55</time>
   <time name="total">    7.71    7.73</time>
   <dipole>
    <v name="dipole">      0.00000000       0.00000000       0.95454820 </v>
    <i name="Tr[quadrupol]"> -12663.79328525 </i>
    <i name="Echarged">      0.00000000 </i>
    <i name="Edipol_quadrupol">      0.00000000 </i>
    <i name="Eion">      0.00000000 </i>
   </dipole>
   <energy>
    <i name="e_fr_energy">   -625.09555124 </i>
    <i name="e_wo_entrp">   -625.02649168 </i>
    <i name="e_0_energy">   -625.06102146 </i>
   </energy>
  </scstep>
  <scstep>
   <time name="diag">    1.78    1.79</time>
   <time name="diis">    5.00    5.01</time>
   <time name="orth">    0.55    0.55</time>
   <time name="total">    7.77    7.80</time>
   <dipole>
    <v name="dipole">      0.00000000       0.00000000       0.88088060 </v>
    <i name="Tr[quadrupol]"> -12665.33587594 </i>
    <i name="Echarged">      0.00000000 </i>
    <i name="Edipol_quadrupol">      0.00000000 </i>
    <i name="Eion">      0.00000000 </i>
   </dipole>
   <energy>
    <i name="e_fr_energy">   -625.11200514 </i>
    <i name="e_wo_entrp">   -625.04224696 </i>
    <i name="e_0_energy">   -625.07712605 </i>
   </energy>
  </scstep>
  <scstep>
   <time name="diag">    1.78    1.79</time>
   <time name="diis">    4.89    4.90</time>
   <time name="orth">    0.55    0.55</time>
   <time name="total">    7.67    7.69</time>
   <dipole>
    <v name="dipole">      0.00000000       0.00000000       0.80965074 </v>
    <i name="Tr[quadrupol]"> -12666.83446869 </i>
    <i name="Echarged">      0.00000000 </i>
    <i name="Edipol_quadrupol">      0.00000000 </i>
    <i name="Eion">      0.00000000 </i>
   </dipole>
   <energy>
    <i name="e_fr_energy">   -625.11358449 </i>
    <i name="e_wo_entrp">   -625.04297388 </i>
    <i name="e_0_energy">   -625.07827918 </i>
   </energy>
  </scstep>
  <scstep>
   <time name="diag">    1.78    1.79</time>
   <time name="diis">    4.88    4.90</time>
   <time name="orth">    0.55    0.55</time>
   <time name="total">    7.65    7.68</time>
   <dipole>
    <v name="dipole">      0.00000000       0.00000000       0.74577104 </v>
    <i name="Tr[quadrupol]"> -12668.21649208 </i>
    <i name="Echarged">      0.00000000 </i>
    <i name="Edipol_quadrupol">      0.00000000 </i>
    <i name="Eion">      0.00000000 </i>
   </dipole>
   <energy>
    <i name="e_fr_energy">   -625.10302280 </i>
    <i name="e_wo_entrp">   -625.03179357 </i>
    <i name="e_0_energy">   -625.06740818 </i>
   </energy>
  </scstep>
  <scstep>
   <time name="diag">    1.79    1.80</time>
   <time name="diis">    4.88    4.90</time>
   <time name="orth">    0.55    0.55</time>
   <time name="total">    7.67    7.70</time>
   <dipole>
    <v name="dipole">      0.00000000       0.00000000       0.68459807 </v>
    <i name="Tr[quadrupol]"> -12669.54278013 </i>
    <i name="Echarged">      0.00000000 </i>
    <i name="Edipol_quadrupol">      0.00000000 </i>
    <i name="Eion">      0.00000000 </i>
   </dipole>
   <energy>
    <i name="e_fr_energy">   -625.08294178 </i>
    <i name="e_wo_entrp">   -625.01124783 </i>
    <i name="e_0_energy">   -625.04709480 </i>
   </energy>
  </scstep>
  <scstep>
   <time name="diag">    1.78    1.79</time>
   <time name="diis">    4.87    4.89</time>
   <time name="orth">    0.55    0.55</time>
   <time name="total">    7.64    7.67</time>
   <dipole>
    <v name="dipole">      0.00000000       0.00000000       0.63326157 </v>
    <i name="Tr[quadrupol]"> -12670.70911418 </i>
    <i name="Echarged">      0.00000000 </i>
    <i name="Edipol_quadrupol">      0.00000000 </i>
    <i name="Eion">      0.00000000 </i>
   </dipole>
   <energy>
    <i name="e_fr_energy">   -625.06394821 </i>
    <i name="e_wo_entrp">   -624.99179850 </i>
    <i name="e_0_energy">   -625.02787335 </i>
   </energy>
  </scstep>
  <scstep>
   <time name="diag">    1.78    1.79</time>
   <time name="diis">    4.88    4.89</time>
   <time name="orth">    0.55    0.55</time>
   <time name="total">    7.65    7.67</time>
   <dipole>
    <v name="dipole">      0.00000000       0.00000000       0.31895934 </v>
    <i name="Tr[quadrupol]"> -12677.43844260 </i>
    <i name="Echarged">      0.00000000 </i>
    <i name="Edipol_quadrupol">      0.00000000 </i>
    <i name="Eion">      0.00000000 </i>
   </dipole>
   <energy>
    <i name="e_fr_energy">   -625.00604317 </i>
    <i name="e_wo_entrp">   -624.93292762 </i>
    <i name="e_0_energy">   -624.96948539 </i>
   </energy>
  </scstep>
  <scstep>
   <time name="diag">    1.78    1.79</time>
   <time name="diis">    4.90    4.94</time>
   <time name="orth">    0.55    0.55</time>
   <time name="total">    7.67    7.71</time>
   <dipole>
    <v name="dipole">      0.00000000       0.00000000       0.32922762 </v>
    <i name="Tr[quadrupol]"> -12677.25807706 </i>
    <i name="Echarged">      0.00000000 </i>
    <i name="Edipol_quadrupol">      0.00000000 </i>
    <i name="Eion">      0.00000000 </i>
   </dipole>
   <energy>
    <i name="e_fr_energy">   -625.01521319 </i>
    <i name="e_wo_entrp">   -624.94214694 </i>
    <i name="e_0_energy">   -624.97868006 </i>
   </energy>
  </scstep>
  <scstep>
   <time name="diag">    1.80    1.80</time>
   <time name="diis">    4.72    4.73</time>
   <time name="orth">    0.55    0.55</time>
   <time name="total">    7.51    7.53</time>
   <dipole>
    <v name="dipole">      0.00000000       0.00000000       0.34070313 </v>
    <i name="Tr[quadrupol]"> -12677.06825585 </i>
    <i name="Echarged">      0.00000000 </i>
    <i name="Edipol_quadrupol">      0.00000000 </i>
    <i name="Eion">      0.00000000 </i>
   </dipole>
   <energy>
    <i name="e_fr_energy">   -625.02132616 </i>
    <i name="e_wo_entrp">   -624.94806861 </i>
    <i name="e_0_energy">   -624.98469739 </i>
   </energy>
  </scstep>
  <scstep>
   <time name="diag">    1.78    1.79</time>
   <time name="diis">    4.33    4.34</time>
   <time name="orth">    0.55    0.55</time>
   <time name="total">    7.10    7.12</time>
   <dipole>
    <v name="dipole">      0.00000000       0.00000000       0.34928101 </v>
    <i name="Tr[quadrupol]"> -12676.89391426 </i>
    <i name="Echarged">      0.00000000 </i>
    <i name="Edipol_quadrupol">      0.00000000 </i>
    <i name="Eion">      0.00000000 </i>
   </dipole>
   <energy>
    <i name="e_fr_energy">   -625.02829723 </i>
    <i name="e_wo_entrp">   -624.95506449 </i>
    <i name="e_0_energy">   -624.99168086 </i>
   </energy>
  </scstep>
  <scstep>
   <time name="diag">    1.78    1.79</time>
   <time name="diis">    4.37    4.38</time>
   <time name="orth">    0.55    0.55</time>
   <time name="total">    7.14    7.16</time>
   <dipole>
    <v name="dipole">      0.00000000       0.00000000       0.36036329 </v>
    <i name="Tr[quadrupol]"> -12676.69165407 </i>
    <i name="Echarged">      0.00000000 </i>
    <i name="Edipol_quadrupol">      0.00000000 </i>
    <i name="Eion">      0.00000000 </i>
   </dipole>
   <energy>
    <i name="e_fr_energy">   -625.03564222 </i>
    <i name="e_wo_entrp">   -624.96247393 </i>
    <i name="e_0_energy">   -624.99905807 </i>
   </energy>
  </scstep>
  <scstep>
   <time name="diag">    1.78    1.79</time>
   <time name="diis">    4.86    4.87</time>
   <time name="orth">    0.55    0.55</time>
   <time name="total">    7.63    7.66</time>
   <dipole>
    <v name="dipole">      0.00000000       0.00000000       0.38627629 </v>
[...]
       <r>   -10.9753     0.0000    66.0000 </r>
       <r>   -10.8718     0.0000    66.0000 </r>
       <r>   -10.7683     0.0000    66.0000 </r>
       <r>   -10.6648     0.0000    66.0000 </r>
       <r>   -10.5613     0.0000    66.0000 </r>
       <r>   -10.4578     0.0000    66.0000 </r>
       <r>   -10.3544     0.0000    66.0000 </r>
       <r>   -10.2509     0.0000    66.0000 </r>
       <r>   -10.1474     0.0000    66.0000 </r>
       <r>   -10.0439     0.0000    66.0000 </r>
       <r>    -9.9404     0.0000    66.0000 </r>
       <r>    -9.8369     0.0000    66.0000 </r>
       <r>    -9.7334     0.0000    66.0000 </r>
       <r>    -9.6299     0.0052    66.0005 </r>
       <r>    -9.5264     1.0304    66.1072 </r>
       <r>    -9.4229     5.9913    66.7272 </r>
       <r>    -9.3194     5.4947    67.2959 </r>
       <r>    -9.2159     3.1095    67.6177 </r>
       <r>    -9.1124    10.1142    68.6644 </r>
       <r>    -9.0090     6.8455    69.3729 </r>
       <r>    -8.9055    11.4712    70.5601 </r>
       <r>    -8.8020    10.5739    71.6544 </r>
       <r>    -8.6985     7.9971    72.4820 </r>
       <r>    -8.5950    22.3708    74.7972 </r>
       <r>    -8.4915    17.5827    76.6169 </r>
       <r>    -8.3880    21.3497    78.8264 </r>
       <r>    -8.2845    21.6680    81.0689 </r>
       <r>    -8.1810    37.1857    84.9173 </r>
       <r>    -8.0775    33.5366    88.3881 </r>
       <r>    -7.9740    30.1274    91.5060 </r>
       <r>    -7.8705    42.1909    95.8724 </r>
       <r>    -7.7671    64.4972   102.5474 </r>
       <r>    -7.6636    60.6510   108.8243 </r>
       <r>    -7.5601    48.4690   113.8404 </r>
       <r>    -7.4566    33.5373   117.3113 </r>
       <r>    -7.3531    30.5487   120.4728 </r>
       <r>    -7.2496    27.9143   123.3617 </r>
       <r>    -7.1461    23.7556   125.8202 </r>
       <r>    -7.0426    27.8480   128.7023 </r>
       <r>    -6.9391    26.7024   131.4658 </r>
       <r>    -6.8356    28.8269   134.4491 </r>
       <r>    -6.7321    28.9574   137.4460 </r>
       <r>    -6.6286    19.5686   139.4712 </r>
       <r>    -6.5251    17.0372   141.2344 </r>
       <r>    -6.4217    15.3118   142.8191 </r>
       <r>    -6.3182    22.6663   145.1648 </r>
       <r>    -6.2147    32.3749   148.5154 </r>
       <r>    -6.1112    25.9949   151.2056 </r>
       <r>    -6.0077    31.7463   154.4911 </r>
       <r>    -5.9042    34.3360   158.0446 </r>
       <r>    -5.8007    34.0276   161.5662 </r>
       <r>    -5.6972    36.5719   165.3511 </r>
       <r>    -5.5937    45.8379   170.0949 </r>
       <r>    -5.4902    43.9935   174.6479 </r>
       <r>    -5.3867    36.7914   178.4555 </r>
       <r>    -5.2832    36.2562   182.2078 </r>
       <r>    -5.1798    39.4432   186.2898 </r>
       <r>    -5.0763    43.3263   190.7737 </r>
       <r>    -4.9728    33.8319   194.2751 </r>
       <r>    -4.8693    31.8229   197.5685 </r>
       <r>    -4.7658    40.1503   201.7237 </r>
       <r>    -4.6623    44.1106   206.2888 </r>
       <r>    -4.5588    32.2915   209.6307 </r>
       <r>    -4.4553    26.8954   212.4142 </r>
       <r>    -4.3518    27.8623   215.2977 </r>
       <r>    -4.2483    22.0210   217.5767 </r>
       <r>    -4.1448    27.4156   220.4140 </r>
       <r>    -4.0413    27.6334   223.2738 </r>
       <r>    -3.9378    35.6425   226.9625 </r>
       <r>    -3.8344    34.1700   230.4989 </r>
       <r>    -3.7309    40.3672   234.6765 </r>
       <r>    -3.6274    30.9818   237.8829 </r>
       <r>    -3.5239    27.2886   240.7071 </r>
       <r>    -3.4204    25.0711   243.3017 </r>
       <r>    -3.3169    23.9068   245.7759 </r>
       <r>    -3.2134    22.8233   248.1379 </r>
       <r>    -3.1099    29.4791   251.1888 </r>
       <r>    -3.0064    37.2241   255.0412 </r>
       <r>    -2.9029    16.3558   256.7339 </r>
       <r>    -2.7994    16.7175   258.4640 </r>
       <r>    -2.6959    20.4013   260.5754 </r>
       <r>    -2.5925    19.0140   262.5431 </r>
       <r>    -2.4890    14.2662   264.0196 </r>
       <r>    -2.3855    21.1608   266.2096 </r>
       <r>    -2.2820    31.5550   269.4752 </r>
       <r>    -2.1785    30.5728   272.6393 </r>
       <r>    -2.0750    42.2213   277.0088 </r>
       <r>    -1.9715    55.8025   282.7840 </r>
       <r>    -1.8680    56.6550   288.6473 </r>
       <r>    -1.7645    43.7041   293.1703 </r>
       <r>    -1.6610    49.9866   298.3435 </r>
       <r>    -1.5575    48.3256   303.3449 </r>
       <r>    -1.4540    40.1568   307.5008 </r>
       <r>    -1.3506    39.2733   311.5652 </r>
       <r>    -1.2471    28.5401   314.5189 </r>
       <r>    -1.1436    21.8183   316.7769 </r>
       <r>    -1.0401    24.9502   319.3591 </r>
       <r>    -0.9366    20.5921   321.4902 </r>
       <r>    -0.8331    35.6639   325.1811 </r>
       <r>    -0.7296    28.8566   328.1675 </r>
       <r>    -0.6261    25.8133   330.8390 </r>
       <r>    -0.5226    26.1230   333.5425 </r>
       <r>    -0.4191    22.6279   335.8843 </r>
       <r>    -0.3156    23.1916   338.2845 </r>
       <r>    -0.2121    28.2025   341.2032 </r>
       <r>    -0.1086    32.1398   344.5294 </r>
       <r>    -0.0052    34.4436   348.0941 </r>
       <r>     0.0983    30.3082   351.2307 </r>
       <r>     0.2018    30.3907   354.3759 </r>
       <r>     0.3053    24.1307   356.8733 </r>
       <r>     0.4088    28.8504   359.8590 </r>
       <r>     0.5123    28.7987   362.8395 </r>
       <r>     0.6158    17.3944   364.6397 </r>
       <r>     0.7193    12.1707   365.8992 </r>
       <r>     0.8228    12.1248   367.1541 </r>
       <r>     0.9263    10.8942   368.2815 </r>
       <r>     1.0298     8.8015   369.1924 </r>
       <r>     1.1333    10.8053   370.3107 </r>
       <r>     1.2367    14.7291   371.8350 </r>
       <r>     1.3402     6.3939   372.4967 </r>
       <r>     1.4437     9.6403   373.4944 </r>
       <r>     1.5472    10.8711   374.6195 </r>
       <r>     1.6507    11.2942   375.7884 </r>
       <r>     1.7542    17.7337   377.6236 </r>
       <r>     1.8577    15.4528   379.2229 </r>
       <r>     1.9612    16.1820   380.8976 </r>
       <r>     2.0647    13.0929   382.2526 </r>
       <r>     2.1682    15.6286   383.8701 </r>
       <r>     2.2717    21.0624   386.0498 </r>
       <r>     2.3752    26.0874   388.7497 </r>
       <r>     2.4787    14.8358   390.2851 </r>
       <r>     2.5821    16.3186   391.9739 </r>
       <r>     2.6856    13.8651   393.4088 </r>
       <r>     2.7891    25.2373   396.0207 </r>
       <r>     2.8926    13.1309   397.3796 </r>
       <r>     2.9961    20.1325   399.4632 </r>
       <r>     3.0996    19.6795   401.4999 </r>
       <r>     3.2031    26.7398   404.2672 </r>
       <r>     3.3066    20.5796   406.3970 </r>
       <r>     3.4101    27.3269   409.2252 </r>
       <r>     3.5136    21.5390   411.4543 </r>
       <r>     3.6171    18.7706   413.3969 </r>
       <r>     3.7206    23.1018   415.7877 </r>
       <r>     3.8240    24.5587   418.3294 </r>
       <r>     3.9275    22.6030   420.6686 </r>
       <r>     4.0310     9.0952   421.6099 </r>
       <r>     4.1345     5.2574   422.1540 </r>
       <r>     4.2380    10.4760   423.2381 </r>
       <r>     4.3415     5.9068   423.8494 </r>
       <r>     4.4450     3.3644   424.1976 </r>
       <r>     4.5485     3.7257   424.5832 </r>
       <r>     4.6520     3.8727   424.9840 </r>
       <r>     4.7555     2.8559   425.2796 </r>
       <r>     4.8590    11.1231   426.4307 </r>
       <r>     4.9625     5.2841   426.9776 </r>
       <r>     5.0660     0.2467   427.0031 </r>
       <r>     5.1694     1.6305   427.1718 </r>
       <r>     5.2729     4.5360   427.6413 </r>
       <r>     5.3764     4.5458   428.1117 </r>
       <r>     5.4799     3.1806   428.4409 </r>
       <r>     5.5834     1.1238   428.5572 </r>
       <r>     5.6869     2.1802   428.7829 </r>
       <r>     5.7904     3.9363   429.1902 </r>
       <r>     5.8939     7.6009   429.9769 </r>
       <r>     5.9974     5.7387   430.5708 </r>
       <r>     6.1009    10.3362   431.6405 </r>
       <r>     6.2044     8.1274   432.4816 </r>
       <r>     6.3079     7.0031   433.2064 </r>
       <r>     6.4113     8.8523   434.1225 </r>
       <r>     6.5148    10.3327   435.1919 </r>
       <r>     6.6183     6.6771   435.8829 </r>
       <r>     6.7218     6.0912   436.5133 </r>
       <r>     6.8253     9.8425   437.5319 </r>
       <r>     6.9288     7.0473   438.2612 </r>
       <r>     7.0323     6.5839   438.9426 </r>
       <r>     7.1358     7.7208   439.7417 </r>
       <r>     7.2393     2.4291   439.9930 </r>
       <r>     7.3428     0.0672   440.0000 </r>
       <r>     7.4463     0.0000   440.0000 </r>
       <r>     7.5498     0.0000   440.0000 </r>
       <r>     7.6533     0.0000   440.0000 </r>
       <r>     7.7567     0.0000   440.0000 </r>
       <r>     7.8602     0.0000   440.0000 </r>
       <r>     7.9637     0.0000   440.0000 </r>
       <r>     8.0672     0.0000   440.0000 </r>
       <r>     8.1707     0.0000   440.0000 </r>
       <r>     8.2742     0.0000   440.0000 </r>
       <r>     8.3777     0.0000   440.0000 </r>
       <r>     8.4812     0.0000   440.0000 </r>
       <r>     8.5847     0.0000   440.0000 </r>
      </set>
     </set>
    </array>
   </total>
  </dos>
 </calculation>
 <structure name="finalpos" >
  <crystal>
   <varray name="basis" >
    <v>      12.80853200       0.00000000       0.00000000 </v>
    <v>       0.00000000       6.47024300       0.00000000 </v>
    <v>       0.00000000       0.00000000      25.88097200 </v>
   </varray>
   <i name="volume">   2144.86781344 </i>
   <varray name="rec_basis" >
    <v>       0.07807296       0.00000000       0.00000000 </v>
    <v>       0.00000000       0.15455370       0.00000000 </v>
    <v>       0.00000000       0.00000000       0.03863843 </v>
   </varray>
  </crystal>
  <varray name="positions" >
   <v>       0.12500000       0.50000000       0.18750000 </v>
   <v>       0.37500000       0.50000000       0.18750000 </v>
   <v>       0.12500000       0.00000000       0.06250000 </v>
   <v>       0.37500000       0.00000000       0.06250000 </v>
   <v>       0.00000000       0.50000000       0.06250000 </v>
   <v>       0.25000000       0.50000000       0.06250000 </v>
   <v>       0.00000000       0.00000000       0.18750000 </v>
   <v>       0.25000000       0.00000000       0.18750000 </v>
   <v>       0.12551412       0.50000000       0.43741134 </v>
   <v>       0.37451326       0.50000000       0.43740583 </v>
   <v>       0.12510862      -0.00000000       0.31285688 </v>
   <v>       0.37492419      -0.00000000       0.31285892 </v>
   <v>       0.00002063       0.50000000       0.31250352 </v>
   <v>       0.25001133       0.50000000       0.31234065 </v>
   <v>      -0.00036425      -0.00000000       0.44244650 </v>
   <v>       0.24999614      -0.00000000       0.44137726 </v>
   <v>       0.00000000       0.50000000       0.13961000 </v>
   <v>       0.25000000       0.50000000       0.13961000 </v>
   <v>       0.00000000       0.00000000       0.01461000 </v>
   <v>       0.25000000       0.00000000       0.01461000 </v>
   <v>       0.12500000       0.80844000       0.18750000 </v>
   <v>       0.37500000       0.80844000       0.18750000 </v>
   <v>       0.12500000       0.30844000       0.06250000 </v>
   <v>       0.37500000       0.30844000       0.06250000 </v>
   <v>       0.00000000       0.50000000       0.23539000 </v>
   <v>       0.25000000       0.50000000       0.23539000 </v>
   <v>       0.00000000       0.00000000       0.11039000 </v>
   <v>       0.25000000       0.00000000       0.11039000 </v>
   <v>       0.12500000       0.19156000       0.18750000 </v>
   <v>       0.37500000       0.19156000       0.18750000 </v>
   <v>       0.12500000       0.69156000       0.06250000 </v>
   <v>       0.37500000       0.69156000       0.06250000 </v>
   <v>       0.00342998       0.50000000       0.38818440 </v>
   <v>       0.24998569       0.50000000       0.38867435 </v>
   <v>       0.00004360      -0.00000000       0.26477045 </v>
   <v>       0.25002319      -0.00000000       0.26484090 </v>
   <v>       0.12486316       0.80936414       0.43608917 </v>
   <v>       0.37512405       0.80934565       0.43606750 </v>
   <v>       0.12503327       0.30763663       0.31185872 </v>
   <v>       0.37500643       0.30764861       0.31185210 </v>
   <v>       0.00076169       0.50000000       0.48301385 </v>
   <v>       0.25001776       0.50000000       0.48245255 </v>
   <v>       0.99964537      -0.00000000       0.36140290 </v>
   <v>       0.25001849      -0.00000000       0.36062266 </v>
   <v>       0.12486316       0.19063586       0.43608917 </v>
   <v>       0.37512405       0.19065435       0.43606750 </v>
   <v>       0.12503327       0.69236337       0.31185872 </v>
   <v>       0.37500643       0.69235139       0.31185210 </v>
   <v>       0.25001214      -0.00000000       0.51076129 </v>
   <v>       0.00136928      -0.00000000       0.51193598 </v>
   <v>       0.62500000       0.50000000       0.18750000 </v>
   <v>       0.87500000       0.50000000       0.18750000 </v>
   <v>       0.62500000       0.00000000       0.06250000 </v>
   <v>       0.87500000       0.00000000       0.06250000 </v>
   <v>       0.50000000       0.50000000       0.06250000 </v>
   <v>       0.75000000       0.50000000       0.06250000 </v>
   <v>       0.50000000       0.00000000       0.18750000 </v>
   <v>       0.75000000       0.00000000       0.18750000 </v>
   <v>       0.62292325       0.50000000       0.43782241 </v>
   <v>       0.87706943       0.50000000       0.43780023 </v>
   <v>       0.62356564      -0.00000000       0.31252766 </v>
   <v>       0.87649160      -0.00000000       0.31252140 </v>
   <v>       0.50001659       0.50000000       0.31250734 </v>
   <v>       0.75002876       0.50000000       0.31335164 </v>
   <v>       0.50034164      -0.00000000       0.44244510 </v>
   <v>       0.74999255      -0.00000000       0.43455817 </v>
   <v>       0.50000000       0.50000000       0.13961000 </v>
   <v>       0.75000000       0.50000000       0.13961000 </v>
   <v>       0.50000000       0.00000000       0.01461000 </v>
   <v>       0.75000000       0.00000000       0.01461000 </v>
   <v>       0.62500000       0.80844000       0.18750000 </v>
   <v>       0.87500000       0.80844000       0.18750000 </v>
   <v>       0.62500000       0.30844000       0.06250000 </v>
   <v>       0.87500000       0.30844000       0.06250000 </v>
   <v>       0.50000000       0.50000000       0.23539000 </v>
   <v>       0.75000000       0.50000000       0.23539000 </v>
   <v>       0.50000000       0.00000000       0.11039000 </v>
   <v>       0.75000000       0.00000000       0.11039000 </v>
   <v>       0.62500000       0.19156000       0.18750000 </v>
   <v>       0.87500000       0.19156000       0.18750000 </v>
   <v>       0.62500000       0.69156000       0.06250000 </v>
   <v>       0.87500000       0.69156000       0.06250000 </v>
   <v>       0.49663509       0.50000000       0.38819403 </v>
   <v>       0.75002092       0.50000000       0.39116395 </v>
   <v>       0.49998955      -0.00000000       0.26477415 </v>
   <v>       0.75000821      -0.00000000       0.26457070 </v>
   <v>       0.62675074       0.80751251       0.44058237 </v>
   <v>       0.87323821       0.80749473       0.44056669 </v>
   <v>       0.62455590       0.30823791       0.31303937 </v>
   <v>       0.87548256       0.30822762       0.31301567 </v>
   <v>       0.49921380       0.50000000       0.48303691 </v>
   <v>       0.50042050      -0.00000000       0.36140619 </v>
   <v>       0.75003630      -0.00000000       0.35925031 </v>
   <v>       0.62675074       0.19248749       0.44058237 </v>
   <v>       0.87323821       0.19250527       0.44056669 </v>
   <v>       0.62455590       0.69176209       0.31303937 </v>
   <v>       0.87548256       0.69177238       0.31301567 </v>
   <v>       0.49855732      -0.00000000       0.51192925 </v>
  </varray>
  <varray name="selective"  type="logical" >
   <v type="logical" >  F  F  F </v>
   <v type="logical" >  F  F  F </v>
   <v type="logical" >  F  F  F </v>
   <v type="logical" >  F  F  F </v>
   <v type="logical" >  F  F  F </v>
   <v type="logical" >  F  F  F </v>
   <v type="logical" >  F  F  F </v>
   <v type="logical" >  F  F  F </v>
   <v type="logical" >  T  T  T </v>
   <v type="logical" >  T  T  T </v>
   <v type="logical" >  T  T  T </v>
   <v type="logical" >  T  T  T </v>
   <v type="logical" >  T  T  T </v>
   <v type="logical" >  T  T  T </v>
   <v type="logical" >  T  T  T </v>
   <v type="logical" >  T  T  T </v>
   <v type="logical" >  F  F  F </v>
   <v type="logical" >  F  F  F </v>
   <v type="logical" >  F  F  F </v>
   <v type="logical" >  F  F  F </v>
   <v type="logical" >  F  F  F </v>
   <v type="logical" >  F  F  F </v>
   <v type="logical" >  F  F  F </v>
   <v type="logical" >  F  F  F </v>
   <v type="logical" >  F  F  F </v>
   <v type="logical" >  F  F  F </v>
   <v type="logical" >  F  F  F </v>
   <v type="logical" >  F  F  F </v>
   <v type="logical" >  F  F  F </v>
   <v type="logical" >  F  F  F </v>
   <v type="logical" >  F  F  F </v>
   <v type="logical" >  F  F  F </v>
   <v type="logical" >  T  T  T </v>
   <v type="logical" >  T  T  T </v>
   <v type="logical" >  T  T  T </v>
   <v type="logical" >  T  T  T </v>
   <v type="logical" >  T  T  T </v>
   <v type="logical" >  T  T  T </v>
   <v type="logical" >  T  T  T </v>
   <v type="logical" >  T  T  T </v>
   <v type="logical" >  T  T  T </v>
   <v type="logical" >  T  T  T </v>
   <v type="logical" >  T  T  T </v>
   <v type="logical" >  T  T  T </v>
   <v type="logical" >  T  T  T </v>
   <v type="logical" >  T  T  T </v>
   <v type="logical" >  T  T  T </v>
   <v type="logical" >  T  T  T </v>
   <v type="logical" >  T  T  T </v>
   <v type="logical" >  T  T  T </v>
   <v type="logical" >  F  F  F </v>
   <v type="logical" >  F  F  F </v>
   <v type="logical" >  F  F  F </v>
   <v type="logical" >  F  F  F </v>
   <v type="logical" >  F  F  F </v>
   <v type="logical" >  F  F  F </v>
   <v type="logical" >  F  F  F </v>
   <v type="logical" >  F  F  F </v>
   <v type="logical" >  T  T  T </v>
   <v type="logical" >  T  T  T </v>
   <v type="logical" >  T  T  T </v>
   <v type="logical" >  T  T  T </v>
   <v type="logical" >  T  T  T </v>
   <v type="logical" >  T  T  T </v>
   <v type="logical" >  T  T  T </v>
   <v type="logical" >  T  T  T </v>
   <v type="logical" >  F  F  F </v>
   <v type="logical" >  F  F  F </v>
   <v type="logical" >  F  F  F </v>
   <v type="logical" >  F  F  F </v>
   <v type="logical" >  F  F  F </v>
   <v type="logical" >  F  F  F </v>
   <v type="logical" >  F  F  F </v>
   <v type="logical" >  F  F  F </v>
   <v type="logical" >  F  F  F </v>
   <v type="logical" >  F  F  F </v>
   <v type="logical" >  F  F  F </v>
   <v type="logical" >  F  F  F </v>
   <v type="logical" >  F  F  F </v>
   <v type="logical" >  F  F  F </v>
   <v type="logical" >  F  F  F </v>
   <v type="logical" >  F  F  F </v>
   <v type="logical" >  T  T  T </v>
   <v type="logical" >  T  T  T </v>
   <v type="logical" >  T  T  T </v>
   <v type="logical" >  T  T  T </v>
   <v type="logical" >  T  T  T </v>
   <v type="logical" >  T  T  T </v>
   <v type="logical" >  T  T  T </v>
   <v type="logical" >  T  T  T </v>
   <v type="logical" >  T  T  T </v>
   <v type="logical" >  T  T  T </v>
   <v type="logical" >  T  T  T </v>
   <v type="logical" >  T  T  T </v>
   <v type="logical" >  T  T  T </v>
   <v type="logical" >  T  T  T </v>
   <v type="logical" >  T  T  T </v>
   <v type="logical" >  T  T  T </v>
  </varray>
  <nose>
   <v>      -3.00000000       0.00000000       0.00010000       0.00010000 </v>
  </nose>
 </structure>
</modeling>
