 vasp.5.4.4.18Apr17-6-g9f103f2a35 (build Feb 25 2019 10:51:38) complex          
  
 executed on             LinuxIFC date 2023.04.12  10:37:30
 running on   40 total cores
 distrk:  each k-point on   40 cores,    1 groups
 distr:  one band on NCORES_PER_BAND=   1 cores,   40 groups


--------------------------------------------------------------------------------------------------------


 INCAR:
 POTCAR:    PAW_PBE Ir 06Sep2000                  
 POTCAR:    PAW_PBE O 08Apr2002                   
 POTCAR:    PAW_PBE Ir 06Sep2000                  
 POTCAR:    PAW_PBE O 08Apr2002                   

 ----------------------------------------------------------------------------- 
|                                                                             |
|           W    W    AA    RRRRR   N    N  II  N    N   GGGG   !!!           |
|           W    W   A  A   R    R  NN   N  II  NN   N  G    G  !!!           |
|           W    W  A    A  R    R  N N  N  II  N N  N  G       !!!           |
|           W WW W  AAAAAA  RRRRR   N  N N  II  N  N N  G  GGG   !            |
|           WW  WW  A    A  R   R   N   NN  II  N   NN  G    G                |
|           W    W  A    A  R    R  N    N  II  N    N   GGGG   !!!           |
|                                                                             |
|      For optimal performance we recommend to set                            |
|        NCORE= 4 - approx SQRT( number of cores)                             |
|      NCORE specifies how many cores store one orbital (NPAR=cpu/NCORE).     |
|      This setting can  greatly improve the performance of VASP for DFT.     |
|      The default,   NCORE=1            might be grossly inefficient         |
|      on modern multi-core architectures or massively parallel machines.     |
|      Do your own testing !!!!                                               |
|      Unfortunately you need to use the default for GW and RPA calculations. |
|      (for HF NCORE is supported but not extensively tested yet)             |
|                                                                             |
 ----------------------------------------------------------------------------- 

 POTCAR:    PAW_PBE Ir 06Sep2000                  
   VRHFIN =Ir: s1d8                                                             
   LEXCH  = PE                                                                  
   EATOM  =   560.1833 eV,   41.1723 Ry                                         
                                                                                
   TITEL  = PAW_PBE Ir 06Sep2000                                                
   LULTRA =        F    use ultrasoft PP ?                                      
   IUNSCR =        1    unscreen: 0-lin 1-nonlin 2-no                           
   RPACOR =    2.250    partial core radius                                     
   POMASS =  192.220; ZVAL   =    9.000    mass and valenz                      
   RCORE  =    2.600    outmost cutoff radius                                   
   RWIGS  =    2.690; RWIGS  =    1.423    wigner-seitz radius (au A)           
   ENMAX  =  210.864; ENMIN  =  158.148 eV                                      
   RCLOC  =    1.857    cutoff for local pot                                    
   LCOR   =        T    correct aug charges                                     
   LPAW   =        T    paw PP                                                  
   EAUG   =  318.962                                                            
   DEXC   =    0.000                                                            
   RMAX   =    2.667    core radius for proj-oper                               
   RAUG   =    1.300    factor for augmentation sphere                          
   RDEP   =    2.748    radius for radial grids                                 
   RDEPT  =    2.300    core radius for aug-charge                              
                                                                                
   Atomic configuration                                                         
   16 entries                                                                   
     n  l   j            E        occ.                                          
     1  0  0.50    -76100.0449   2.0000                                         
     2  0  0.50    -13308.1683   2.0000                                         
     2  1  1.50    -11558.0021   6.0000                                         
     3  0  0.50     -3110.7274   2.0000                                         
     3  1  1.50     -2599.2109   6.0000                                         
     3  2  2.50     -2037.1515  10.0000                                         
     4  0  0.50      -661.6001   2.0000                                         
     4  1  1.50      -493.8981   6.0000                                         
     4  2  2.50      -288.1909  10.0000                                         
     4  3  3.50       -59.5718  14.0000                                         
     5  0  0.50       -95.3879   2.0000                                         
     5  1  1.50       -52.2747   6.0000                                         
     5  2  2.50        -5.4180   8.0000                                         
     6  0  0.50        -5.5479   1.0000                                         
     6  1  1.50        -6.8029   0.0000                                         
     5  3  2.50        -1.3606   0.0000                                         
   Description                                                                  
     l       E           TYP  RCUT    TYP  RCUT                                 
     2     -5.4179967     23  2.600                                             
     2     -6.7785793     23  2.600                                             
     0     -5.5478636     23  2.600                                             
     0      2.2542272     23  2.600                                             
     1     -2.7211652     23  2.600                                             
     1     20.4087390     23  2.600                                             
  local pseudopotential read in
  partial core-charges read in
  partial kinetic energy density read in
  atomic valenz-charges read in
  non local Contribution for L=           2  read in
    real space projection operators read in
  non local Contribution for L=           2  read in
    real space projection operators read in
  non local Contribution for L=           0  read in
    real space projection operators read in
  non local Contribution for L=           0  read in
    real space projection operators read in
  non local Contribution for L=           1  read in
    real space projection operators read in
  non local Contribution for L=           1  read in
    real space projection operators read in
    PAW grid and wavefunctions read in
 
   number of l-projection  operators is LMAX  =           6
   number of lm-projection operators is LMMAX =          18
 
 POTCAR:    PAW_PBE O 08Apr2002                   
   VRHFIN =O: s2p4                                                              
   LEXCH  = PE                                                                  
   EATOM  =   432.3788 eV,   31.7789 Ry                                         
                                                                                
   TITEL  = PAW_PBE O 08Apr2002                                                 
   LULTRA =        F    use ultrasoft PP ?                                      
   IUNSCR =        1    unscreen: 0-lin 1-nonlin 2-no                           
   RPACOR =    1.200    partial core radius                                     
   POMASS =   16.000; ZVAL   =    6.000    mass and valenz                      
   RCORE  =    1.520    outmost cutoff radius                                   
   RWIGS  =    1.550; RWIGS  =    0.820    wigner-seitz radius (au A)           
   ENMAX  =  400.000; ENMIN  =  300.000 eV                                      
   ICORE  =        2    local potential                                         
   LCOR   =        T    correct aug charges                                     
   LPAW   =        T    paw PP                                                  
   EAUG   =  605.392                                                            
   DEXC   =    0.000                                                            
   RMAX   =    1.553    core radius for proj-oper                               
   RAUG   =    1.300    factor for augmentation sphere                          
   RDEP   =    1.550    radius for radial grids                                 
   RDEPT  =    1.329    core radius for aug-charge                              
                                                                                
   Atomic configuration                                                         
    4 entries                                                                   
     n  l   j            E        occ.                                          
     1  0  0.50      -514.6923   2.0000                                         
     2  0  0.50       -23.9615   2.0000                                         
     2  1  0.50        -9.0305   4.0000                                         
     3  2  1.50        -9.5241   0.0000                                         
   Description                                                                  
     l       E           TYP  RCUT    TYP  RCUT                                 
     0    -23.9615318     23  1.200                                             
     0     -9.5240782     23  1.200                                             
     1     -9.0304911     23  1.520                                             
     1      8.1634956     23  1.520                                             
     2     -9.5240782      7  1.500                                             
  local pseudopotential read in
  partial core-charges read in
  partial kinetic energy density read in
  kinetic energy density of atom read in
  atomic valenz-charges read in
  non local Contribution for L=           0  read in
    real space projection operators read in
  non local Contribution for L=           0  read in
    real space projection operators read in
  non local Contribution for L=           1  read in
    real space projection operators read in
  non local Contribution for L=           1  read in
    real space projection operators read in
    PAW grid and wavefunctions read in
 
   number of l-projection  operators is LMAX  =           4
   number of lm-projection operators is LMMAX =           8
 
 POTCAR:    PAW_PBE Ir 06Sep2000                  
   VRHFIN =Ir: s1d8                                                             
   LEXCH  = PE                                                                  
   EATOM  =   560.1833 eV,   41.1723 Ry                                         
                                                                                
   TITEL  = PAW_PBE Ir 06Sep2000                                                
   LULTRA =        F    use ultrasoft PP ?                                      
   IUNSCR =        1    unscreen: 0-lin 1-nonlin 2-no                           
   RPACOR =    2.250    partial core radius                                     
   POMASS =  192.220; ZVAL   =    9.000    mass and valenz                      
   RCORE  =    2.600    outmost cutoff radius                                   
   RWIGS  =    2.690; RWIGS  =    1.423    wigner-seitz radius (au A)           
   ENMAX  =  210.864; ENMIN  =  158.148 eV                                      
   RCLOC  =    1.857    cutoff for local pot                                    
   LCOR   =        T    correct aug charges                                     
   LPAW   =        T    paw PP                                                  
   EAUG   =  318.962                                                            
   DEXC   =    0.000                                                            
   RMAX   =    2.667    core radius for proj-oper                               
   RAUG   =    1.300    factor for augmentation sphere                          
   RDEP   =    2.748    radius for radial grids                                 
   RDEPT  =    2.300    core radius for aug-charge                              
                                                                                
   Atomic configuration                                                         
   16 entries                                                                   
     n  l   j            E        occ.                                          
     1  0  0.50    -76100.0449   2.0000                                         
     2  0  0.50    -13308.1683   2.0000                                         
     2  1  1.50    -11558.0021   6.0000                                         
     3  0  0.50     -3110.7274   2.0000                                         
     3  1  1.50     -2599.2109   6.0000                                         
     3  2  2.50     -2037.1515  10.0000                                         
     4  0  0.50      -661.6001   2.0000                                         
     4  1  1.50      -493.8981   6.0000                                         
     4  2  2.50      -288.1909  10.0000                                         
     4  3  3.50       -59.5718  14.0000                                         
     5  0  0.50       -95.3879   2.0000                                         
     5  1  1.50       -52.2747   6.0000                                         
     5  2  2.50        -5.4180   8.0000                                         
     6  0  0.50        -5.5479   1.0000                                         
     6  1  1.50        -6.8029   0.0000                                         
     5  3  2.50        -1.3606   0.0000                                         
   Description                                                                  
     l       E           TYP  RCUT    TYP  RCUT                                 
     2     -5.4179967     23  2.600                                             
     2     -6.7785793     23  2.600                                             
     0     -5.5478636     23  2.600                                             
     0      2.2542272     23  2.600                                             
     1     -2.7211652     23  2.600                                             
     1     20.4087390     23  2.600                                             
  local pseudopotential read in
  partial core-charges read in
  partial kinetic energy density read in
  atomic valenz-charges read in
  non local Contribution for L=           2  read in
    real space projection operators read in
  non local Contribution for L=           2  read in
    real space projection operators read in
  non local Contribution for L=           0  read in
    real space projection operators read in
  non local Contribution for L=           0  read in
    real space projection operators read in
  non local Contribution for L=           1  read in
    real space projection operators read in
  non local Contribution for L=           1  read in
    real space projection operators read in
    PAW grid and wavefunctions read in
 
   number of l-projection  operators is LMAX  =           6
   number of lm-projection operators is LMMAX =          18
 
 POTCAR:    PAW_PBE O 08Apr2002                   
   VRHFIN =O: s2p4                                                              
   LEXCH  = PE                                                                  
   EATOM  =   432.3788 eV,   31.7789 Ry                                         
                                                                                
   TITEL  = PAW_PBE O 08Apr2002                                                 
   LULTRA =        F    use ultrasoft PP ?                                      
   IUNSCR =        1    unscreen: 0-lin 1-nonlin 2-no                           
   RPACOR =    1.200    partial core radius                                     
   POMASS =   16.000; ZVAL   =    6.000    mass and valenz                      
   RCORE  =    1.520    outmost cutoff radius                                   
   RWIGS  =    1.550; RWIGS  =    0.820    wigner-seitz radius (au A)           
   ENMAX  =  400.000; ENMIN  =  300.000 eV                                      
   ICORE  =        2    local potential                                         
   LCOR   =        T    correct aug charges                                     
   LPAW   =        T    paw PP                                                  
   EAUG   =  605.392                                                            
   DEXC   =    0.000                                                            
   RMAX   =    1.553    core radius for proj-oper                               
   RAUG   =    1.300    factor for augmentation sphere                          
   RDEP   =    1.550    radius for radial grids                                 
   RDEPT  =    1.329    core radius for aug-charge                              
                                                                                
   Atomic configuration                                                         
    4 entries                                                                   
     n  l   j            E        occ.                                          
     1  0  0.50      -514.6923   2.0000                                         
     2  0  0.50       -23.9615   2.0000                                         
     2  1  0.50        -9.0305   4.0000                                         
     3  2  1.50        -9.5241   0.0000                                         
   Description                                                                  
     l       E           TYP  RCUT    TYP  RCUT                                 
     0    -23.9615318     23  1.200                                             
     0     -9.5240782     23  1.200                                             
     1     -9.0304911     23  1.520                                             
     1      8.1634956     23  1.520                                             
     2     -9.5240782      7  1.500                                             
  local pseudopotential read in
  partial core-charges read in
  partial kinetic energy density read in
  kinetic energy density of atom read in
  atomic valenz-charges read in
  non local Contribution for L=           0  read in
    real space projection operators read in
  non local Contribution for L=           0  read in
    real space projection operators read in
  non local Contribution for L=           1  read in
    real space projection operators read in
  non local Contribution for L=           1  read in
    real space projection operators read in
    PAW grid and wavefunctions read in
 
   number of l-projection  operators is LMAX  =           4
   number of lm-projection operators is LMMAX =           8
 
 Optimization of the real space projectors (new method)

 maximal supplied QI-value         = 14.36
 optimisation between [QCUT,QGAM] = [ 11.35, 22.84] = [ 36.05,146.02] Ry 
 Optimized for a Real-space Cutoff    1.52 Angstroem

   l    n(q)    QCUT    max X(q) W(low)/X(q) W(high)/X(q)  e(spline) 
   2      9    11.346   134.116    0.47E-03    0.13E-03    0.92E-06
   2      9    11.346   130.192    0.47E-03    0.13E-03    0.92E-06
   0     10    11.346    60.310    0.74E-04    0.13E-03    0.69E-06
   0     10    11.346    39.218    0.68E-04    0.12E-03    0.65E-06
   1     10    11.346    18.439    0.15E-03    0.34E-04    0.20E-06
   1     10    11.346    12.760    0.12E-03    0.31E-04    0.16E-06
 Optimization of the real space projectors (new method)

 maximal supplied QI-value         = 24.76
 optimisation between [QCUT,QGAM] = [ 11.39, 22.77] = [ 36.31,145.25] Ry 
 Optimized for a Real-space Cutoff    1.00 Angstroem

   l    n(q)    QCUT    max X(q) W(low)/X(q) W(high)/X(q)  e(spline) 
   0      7    11.387    20.381    0.39E-03    0.13E-02    0.15E-06
   0      7    11.387    15.268    0.42E-03    0.14E-02    0.17E-06
   1      6    11.387     5.964    0.41E-03    0.11E-02    0.17E-06
   1      6    11.387     5.382    0.39E-03    0.87E-03    0.15E-06
 Optimization of the real space projectors (new method)

 maximal supplied QI-value         = 14.36
 optimisation between [QCUT,QGAM] = [ 11.35, 22.84] = [ 36.05,146.02] Ry 
 Optimized for a Real-space Cutoff    1.52 Angstroem

   l    n(q)    QCUT    max X(q) W(low)/X(q) W(high)/X(q)  e(spline) 
   2      9    11.346   134.116    0.47E-03    0.13E-03    0.92E-06
   2      9    11.346   130.192    0.47E-03    0.13E-03    0.92E-06
   0     10    11.346    60.310    0.74E-04    0.13E-03    0.69E-06
   0     10    11.346    39.218    0.68E-04    0.12E-03    0.65E-06
   1     10    11.346    18.439    0.15E-03    0.34E-04    0.20E-06
   1     10    11.346    12.760    0.12E-03    0.31E-04    0.16E-06
 Optimization of the real space projectors (new method)

 maximal supplied QI-value         = 24.76
 optimisation between [QCUT,QGAM] = [ 11.39, 22.77] = [ 36.31,145.25] Ry 
 Optimized for a Real-space Cutoff    1.00 Angstroem

   l    n(q)    QCUT    max X(q) W(low)/X(q) W(high)/X(q)  e(spline) 
   0      7    11.387    20.381    0.39E-03    0.13E-02    0.15E-06
   0      7    11.387    15.268    0.42E-03    0.14E-02    0.17E-06
   1      6    11.387     5.964    0.41E-03    0.11E-02    0.17E-06
   1      6    11.387     5.382    0.39E-03    0.87E-03    0.15E-06

 ----------------------------------------------------------------------------- 
|                                                                             |
|  ADVICE TO THIS USER RUNNING 'VASP/VAMP'   (HEAR YOUR MASTER'S VOICE ...):  |
|                                                                             |
|      You enforced a specific xc-type in the INCAR file,                     |
|      a different type was found on the POTCAR file                          |
|          I HOPE YOU KNOW, WHAT YOU ARE  DOING                               |
|                                                                             |
 ----------------------------------------------------------------------------- 

  PAW_PBE Ir 06Sep2000                  :
 energy of atom  1       EATOM= -560.1833
 kinetic energy error for atom=    0.0018 (will be added to EATOM!!)
  PAW_PBE O 08Apr2002                   :
 energy of atom  2       EATOM= -432.3788
 kinetic energy error for atom=    0.0224 (will be added to EATOM!!)
  PAW_PBE Ir 06Sep2000                  :
 energy of atom  3       EATOM= -560.1833
 kinetic energy error for atom=    0.0018 (will be added to EATOM!!)
  PAW_PBE O 08Apr2002                   :
 energy of atom  4       EATOM= -432.3788
 kinetic energy error for atom=    0.0224 (will be added to EATOM!!)
 
 
 POSCAR: Ir  O Ir  O                             
  positions in cartesian coordinates
  No initial velocities read in
 exchange correlation table for  LEXCH =        9
   RHO(1)=    0.500       N(1)  =     2000
   RHO(2)=  100.500       N(2)  =     4000

 VTST: version 3.2, (02/03/18)

 CHAIN: initializing optimizer
 
 OPT: Using VASP Dynamics algorithm
 CHAIN: Read ICHAIN            0
 
 POSCAR: Ir  O Ir  O                             
  positions in cartesian coordinates
  No initial velocities read in
 


--------------------------------------------------------------------------------------------------------


 ion  position               nearest neighbor table
   1  0.125  0.500  0.188-  20 2.00  28 2.00  16 2.02  24 2.02  25 2.02  17 2.02   2 3.20  49 3.20

   2  0.375  0.500  0.188-  21 2.00  29 2.00  25 2.02  17 2.02  63 2.02  71 2.02   1 3.20  48 3.20

   3  0.125  0.000  0.062-  22 2.00  30 2.00  18 2.02  26 2.02  27 2.02  19 2.02   4 3.20  51 3.20

   4  0.375  0.000  0.062-  23 2.00  31 2.00  27 2.02  19 2.02  65 2.02  73 2.02   3 3.20  50 3.20

   5  0.000  0.500  0.062-  16 2.00  22 2.02  30 2.02  70 2.02  78 2.02   6 3.20  53 3.20
   6  0.250  0.500  0.062-  17 2.00  22 2.02  23 2.02  30 2.02  31 2.02   5 3.20  52 3.20
   7  0.000  0.000  0.188-  26 2.00  34 2.00  28 2.02  20 2.02  68 2.02  76 2.02   8 3.20  55 3.20

   8  0.250  0.000  0.188-  35 1.99  27 2.00  20 2.02  28 2.02  29 2.02  21 2.02   7 3.20  54 3.20

   9  0.127  0.500  0.442-  41 1.78  40 1.78  33 2.01  32 2.02  36 2.04  44 2.04
  10  0.124  0.000  0.312-  38 2.00  46 2.00  34 2.02  35 2.03  42 2.03  43 2.03  11 3.21  58 3.22

  11  0.375  0.000  0.312-  39 2.00  47 2.00  89 2.02  81 2.02  35 2.02  43 2.03  10 3.21  57 3.22

  12  0.002  0.500  0.314-  32 1.89  38 2.01  46 2.01  24 2.03  86 2.04  94 2.04  13 3.17  60 3.24

  13  0.249  0.500  0.313-  33 1.89  38 2.02  46 2.02  25 2.02  39 2.04  47 2.04  12 3.17  59 3.24

  14  0.997  0.000  0.435-  42 1.95  84 1.96  92 1.96  36 2.06  44 2.06  62 3.08  15 3.33
  15  0.257  0.000  0.435-  45 1.94  37 1.94  43 1.95  44 2.06  36 2.06  61 3.08  14 3.33
  16  0.000  0.500  0.140-   5 2.00   1 2.02  49 2.02
  17  0.250  0.500  0.140-   6 2.00   2 2.02   1 2.02
  18  0.000  0.000  0.015-   3 2.02  51 2.02
  19  0.250  0.000  0.015-   3 2.02   4 2.02
  20  0.125  0.808  0.188-   1 2.00   7 2.02   8 2.02
  21  0.375  0.808  0.188-   2 2.00   8 2.02  54 2.02
  22  0.125  0.308  0.062-   3 2.00   5 2.02   6 2.02
  23  0.375  0.308  0.062-   4 2.00   6 2.02  52 2.02
  24  0.000  0.500  0.235-   1 2.02  49 2.02  12 2.03
  25  0.250  0.500  0.235-  13 2.02   2 2.02   1 2.02
  26  0.000  0.000  0.110-   7 2.00   3 2.02  51 2.02
  27  0.250  0.000  0.110-   8 2.00   4 2.02   3 2.02
  28  0.125  0.192  0.188-   1 2.00   7 2.02   8 2.02
  29  0.375  0.192  0.188-   2 2.00   8 2.02  54 2.02
  30  0.125  0.692  0.062-   3 2.00   5 2.02   6 2.02
  31  0.375  0.692  0.062-   4 2.00   6 2.02  52 2.02
  32  0.017  0.500  0.386-  12 1.89   9 2.02
  33  0.235  0.500  0.386-  13 1.89   9 2.01
  34  0.999  0.000  0.265-   7 2.00  10 2.02  58 2.05
  35  0.250  0.000  0.264-   8 1.99  11 2.02  10 2.03
  36  0.127  0.815  0.442-   9 2.04  15 2.06  14 2.06
  37  0.376  0.819  0.442-  15 1.94  61 1.95
  38  0.125  0.308  0.309-  10 2.00  12 2.01  13 2.02
  39  0.376  0.309  0.314-  11 2.00  59 2.03  13 2.04
  40  0.019  0.500  0.485-   9 1.78
  41  0.234  0.500  0.486-   9 1.78
  42  0.999  0.000  0.360-  14 1.95  58 2.02  10 2.03
  43  0.250  0.000  0.360-  15 1.95  11 2.03  10 2.03
  44  0.127  0.185  0.442-   9 2.04  15 2.06  14 2.06
  45  0.376  0.181  0.442-  15 1.94  61 1.95
  46  0.125  0.692  0.309-  10 2.00  12 2.01  13 2.02
  47  0.376  0.691  0.314-  11 2.00  59 2.03  13 2.04
  48  0.625  0.500  0.188-  67 2.00  75 2.00  63 2.02  71 2.02  72 2.02  64 2.02   2 3.20  49 3.20

  49  0.875  0.500  0.188-  68 2.00  76 2.00  64 2.02  16 2.02  72 2.02  24 2.02   1 3.20  48 3.20

  50  0.625  0.000  0.062-  69 2.00  77 2.00  65 2.02  73 2.02  74 2.02  66 2.02   4 3.20  51 3.20

  51  0.875  0.000  0.062-  70 2.00  78 2.00  66 2.02  18 2.02  74 2.02  26 2.02   3 3.20  50 3.20

  52  0.500  0.500  0.062-  63 2.00  31 2.02  23 2.02  69 2.02  77 2.02  53 3.20   6 3.20
  53  0.750  0.500  0.062-  64 2.00  69 2.02  70 2.02  77 2.02  78 2.02  52 3.20   5 3.20
  54  0.500  0.000  0.188-  73 2.00  81 2.00  67 2.02  21 2.02  75 2.02  29 2.02   8 3.20  55 3.20

  55  0.750  0.000  0.188-  74 2.00  82 2.00  67 2.02  75 2.02  76 2.02  68 2.02   7 3.20  54 3.20

  56  0.626  0.500  0.442-  87 1.78  88 1.79  80 1.99  79 2.02  83 2.03  91 2.03
  57  0.627  0.000  0.313-  85 1.99  93 1.99  82 2.02  90 2.02  89 2.03  81 2.04  58 3.15  11 3.22

  58  0.873  0.000  0.314-  86 2.00  94 2.00  82 2.02  42 2.02  90 2.03  34 2.05  57 3.15  10 3.22

  59  0.502  0.500  0.314-  79 1.89  85 2.02  93 2.02  71 2.03  39 2.03  47 2.03  60 3.16  13 3.24

  60  0.749  0.500  0.314-  80 1.89  85 2.01  93 2.01  72 2.02  86 2.03  94 2.03  59 3.16  12 3.24

  61  0.497  0.000  0.435-  89 1.95  45 1.95  37 1.95  83 2.05  91 2.05  15 3.08  62 3.35
  62  0.758  0.000  0.448-  95 1.76  92 1.93  84 1.93  83 2.09  91 2.09  90 2.23  14 3.08  61 3.35

  63  0.500  0.500  0.140-  52 2.00  48 2.02   2 2.02
  64  0.750  0.500  0.140-  53 2.00  49 2.02  48 2.02
  65  0.500  0.000  0.015-   4 2.02  50 2.02
  66  0.750  0.000  0.015-  50 2.02  51 2.02
  67  0.625  0.808  0.188-  48 2.00  54 2.02  55 2.02
  68  0.875  0.808  0.188-  49 2.00   7 2.02  55 2.02
  69  0.625  0.308  0.062-  50 2.00  52 2.02  53 2.02
  70  0.875  0.308  0.062-  51 2.00   5 2.02  53 2.02
  71  0.500  0.500  0.235-   2 2.02  48 2.02  59 2.03
  72  0.750  0.500  0.235-  60 2.02  49 2.02  48 2.02
  73  0.500  0.000  0.110-  54 2.00  50 2.02   4 2.02
  74  0.750  0.000  0.110-  55 2.00  51 2.02  50 2.02
  75  0.625  0.192  0.188-  48 2.00  54 2.02  55 2.02
  76  0.875  0.192  0.188-  49 2.00   7 2.02  55 2.02
  77  0.625  0.692  0.062-  50 2.00  52 2.02  53 2.02
  78  0.875  0.692  0.062-  51 2.00   5 2.02  53 2.02
  79  0.515  0.500  0.387-  59 1.89  56 2.02
  80  0.733  0.500  0.386-  60 1.89  56 1.99
  81  0.501  0.000  0.265-  54 2.00  11 2.02  57 2.04
  82  0.750  0.000  0.265-  55 2.00  57 2.02  58 2.02
  83  0.625  0.813  0.441-  56 2.03  61 2.05  62 2.09
  84  0.875  0.817  0.439-  62 1.93  14 1.96
  85  0.625  0.308  0.309-  57 1.99  60 2.01  59 2.02
  86  0.875  0.309  0.314-  58 2.00  60 2.03  12 2.04
  87  0.520  0.500  0.486-  56 1.78
  88  0.733  0.500  0.486-  56 1.79
  89  0.500  0.000  0.360-  61 1.95  11 2.02  57 2.03
  90  0.749  0.000  0.362-  57 2.02  58 2.03  62 2.23
  91  0.625  0.187  0.441-  56 2.03  61 2.05  62 2.09
  92  0.875  0.183  0.439-  62 1.93  14 1.96
  93  0.625  0.692  0.309-  57 1.99  60 2.01  59 2.02
  94  0.875  0.691  0.314-  58 2.00  60 2.03  12 2.04
  95  0.751  0.000  0.516-  62 1.76
 
  LATTYP: Found a simple orthorhombic cell.
 ALAT       =     6.4702430000
 B/A-ratio  =     1.9796060210
 C/A-ratio  =     4.0000000000
  
  Lattice vectors:
  
 A1 = (   0.0000000000,  -6.4702430000,   0.0000000000)
 A2 = ( -12.8085320000,   0.0000000000,   0.0000000000)
 A3 = (   0.0000000000,   0.0000000000, -25.8809720000)


Analysis of symmetry for initial positions (statically):
=====================================================================
 Subroutine PRICEL returns:
 Original cell was already a primitive cell.
 

 Routine SETGRP: Setting up the symmetry group for a 
 simple orthorhombic supercell.


 Subroutine GETGRP returns: Found  2 space group operations
 (whereof  2 operations were pure point group operations)
 out of a pool of  8 trial point group operations.


The static configuration has the point symmetry C_1h.


Analysis of symmetry for dynamics (positions and initial velocities):
=====================================================================
 Subroutine PRICEL returns:
 Original cell was already a primitive cell.
 

 Routine SETGRP: Setting up the symmetry group for a 
 simple orthorhombic supercell.


 Subroutine GETGRP returns: Found  2 space group operations
 (whereof  2 operations were pure point group operations)
 out of a pool of  8 trial point group operations.


The dynamic configuration has the point symmetry C_1h.


Analysis of constrained symmetry for selective dynamics:
=====================================================================
 Subroutine PRICEL returns:
 Original cell was already a primitive cell.
 

 Routine SETGRP: Setting up the symmetry group for a 
 simple orthorhombic supercell.


 Subroutine GETGRP returns: Found  2 space group operations
 (whereof  2 operations were pure point group operations)
 out of a pool of  8 trial point group operations.


The constrained configuration has the point symmetry C_1h.


Analysis of structural, dynamic, and magnetic symmetry:
=====================================================================
 Subroutine PRICEL returns:
 Original cell was already a primitive cell.
 

 Routine SETGRP: Setting up the symmetry group for a 
 simple orthorhombic supercell.


 Subroutine GETGRP returns: Found  2 space group operations
 (whereof  2 operations were pure point group operations)
 out of a pool of  8 trial point group operations.


The magnetic configuration has the point symmetry C_1h.


 Subroutine INISYM returns: Found  2 space group operations
 (whereof  2 operations are pure point group operations),
 and found     1 'primitive' translations

 
 
 KPOINTS: Automatic mesh                          

Automatic generation of k-mesh.
Space group operators:
 irot       det(A)        alpha          n_x          n_y          n_z        tau_x        tau_y        tau_z
    1     1.000000     0.000001     1.000000     0.000000     0.000000     0.000000     0.000000     0.000000
    2    -1.000000   180.000000     0.000000     1.000000     0.000000     0.000000     0.000000     0.000000
 
 Subroutine IBZKPT returns following result:
 ===========================================
 
 Found      4 irreducible k-points:
 
 Following reciprocal coordinates:
            Coordinates               Weight
  0.000000  0.000000  0.000000      1.000000
  0.333333  0.000000  0.000000      2.000000
  0.000000  0.333333  0.000000      2.000000
  0.333333  0.333333  0.000000      4.000000
 
 Following cartesian coordinates:
            Coordinates               Weight
  0.000000  0.000000  0.000000      1.000000
  0.026024  0.000000  0.000000      2.000000
  0.000000  0.051518  0.000000      2.000000
  0.026024  0.051518  0.000000      4.000000
 
 
 Subroutine IBZKPT_HF returns following result:
 ==============================================
 
 Found      9 k-points in 1st BZ
 the following      9 k-points will be used (e.g. in the exchange kernel)
 Following reciprocal coordinates:   # in IRBZ
  0.000000  0.000000  0.000000    0.11111111   1 t-inv F
  0.333333  0.000000  0.000000    0.11111111   2 t-inv F
  0.000000  0.333333  0.000000    0.11111111   3 t-inv F
  0.333333  0.333333  0.000000    0.11111111   4 t-inv F
  0.000000 -0.333333  0.000000    0.11111111   3 t-inv F
  0.333333 -0.333333  0.000000    0.11111111   4 t-inv F
 -0.333333  0.000000  0.000000    0.11111111   2 t-inv T
 -0.333333 -0.333333  0.000000    0.11111111   4 t-inv T
 -0.333333  0.333333  0.000000    0.11111111   4 t-inv T


--------------------------------------------------------------------------------------------------------




 Dimension of arrays:
   k-points           NKPTS =      4   k-points in BZ     NKDIM =      4   number of bands    NBANDS=    440
   number of dos      NEDOS =    301   number of ions     NIONS =     95
   non local maximal  LDIM  =      6   non local SUM 2l+1 LMDIM =     18
   total plane-waves  NPLWV = 362880
   max r-space proj   IRMAX =   2532   max aug-charges    IRDMAX=  12432
   dimension x,y,z NGX =    70 NGY =   36 NGZ =  144
   dimension x,y,z NGXF=   140 NGYF=   72 NGZF=  288
   support grid    NGXF=   140 NGYF=   72 NGZF=  288
   ions per type =              15  32  15  33
   NGX,Y,Z   is equivalent  to a cutoff of   9.09,  9.25,  9.25 a.u.
   NGXF,Y,Z  is equivalent  to a cutoff of  18.17, 18.50, 18.50 a.u.

 SYSTEM =  unknown system                          
 POSCAR =  Ir  O Ir  O                             

 Startparameter for this run:
   NWRITE =      2    write-flag & timer
   PREC   = normal    normal or accurate (medium, high low for compatibility)
   ISTART =      0    job   : 0-new  1-cont  2-samecut
   ICHARG =      2    charge: 1-file 2-atom 10-const
   ISPIN  =      2    spin polarized calculation?
   LNONCOLLINEAR =      F non collinear calculations
   LSORBIT =      F    spin-orbit coupling
   INIWAV =      1    electr: 0-lowe 1-rand  2-diag
   LASPH  =      F    aspherical Exc in radial PAW
   METAGGA=      F    non-selfconsistent MetaGGA calc.

 Electronic Relaxation 1
   ENCUT  =  500.0 eV  36.75 Ry    6.06 a.u.  23.35 11.80 47.19*2*pi/ulx,y,z
   ENINI  =  500.0     initial cutoff
   ENAUG  =  605.4 eV  augmentation charge cutoff
   NELM   =     60;   NELMIN=  4; NELMDL= -5     # of ELM steps 
   EDIFF  = 0.1E-05   stopping-criterion for ELM
   LREAL  =      T    real-space projection
   NLSPLINE    = F    spline interpolate recip. space projectors
   LCOMPAT=      F    compatible to vasp.4.4
   GGA_COMPAT  = T    GGA compatible to vasp.4.4-vasp.4.6
   LMAXPAW     = -100 max onsite density
   LMAXMIX     =    2 max onsite mixed and CHGCAR
   VOSKOWN=      0    Vosko Wilk Nusair interpolation
   ROPT   =   -0.00050  -0.00050  -0.00050  -0.00050
 Ionic relaxation
   EDIFFG = -.5E-01   stopping-criterion for IOM
   NSW    =   1177    number of steps for IOM
   NBLOCK =      1;   KBLOCK =   1177    inner block; outer block 
   IBRION =      5    ionic relax: 0-MD 1-quasi-New 2-CG
   NFREE  =      2    steps in history (QN), initial steepest desc. (CG)
   ISIF   =      2    stress and relaxation
   IWAVPR =     11    prediction:  0-non 1-charg 2-wave 3-comb
   ISYM   =      2    0-nonsym 1-usesym 2-fastsym
   LCORR  =      T    Harris-Foulkes like correction to forces

   POTIM  = 0.5000    time-step for ionic-motion
   TEIN   =    0.0    initial temperature
   TEBEG  =    0.0;   TEEND  =   0.0 temperature during run
   SMASS  =  -3.00    Nose mass-parameter (am)
   estimated Nose-frequenzy (Omega)   =  0.10E-29 period in steps =****** mass=  -0.375E-26a.u.
   SCALEE = 1.0000    scale energy and forces
   NPACO  =    256;   APACO  = 16.0  distance and # of slots for P.C.
   PSTRESS=    0.0 pullay stress

  Mass of Ions in am
   POMASS = 192.22 16.00192.22 16.00
  Ionic Valenz
   ZVAL   =   9.00  6.00  9.00  6.00
  Atomic Wigner-Seitz radii
   RWIGS  =  -1.00 -1.00 -1.00 -1.00
  virtual crystal weights 
   VCA    =   1.00  1.00  1.00  1.00
   NELECT =     660.0000    total number of electrons
   NUPDOWN=      -1.0000    fix difference up-down

 DOS related values:
   EMIN   =  10.00;   EMAX   =-10.00  energy-range for DOS
   EFERMI =   0.00
   ISMEAR =     0;   SIGMA  =   0.05  broadening in eV -4-tet -1-fermi 0-gaus

 Electronic relaxation 2 (details)
   IALGO  =     68    algorithm
   LDIAG  =      T    sub-space diagonalisation (order eigenvalues)
   LSUBROT=      F    optimize rotation matrix (better conditioning)
   TURBO    =      0    0=normal 1=particle mesh
   IRESTART =      0    0=no restart 2=restart with 2 vectors
   NREBOOT  =      0    no. of reboots
   NMIN     =      0    reboot dimension
   EREF     =   0.00    reference energy to select bands
   IMIX   =      4    mixing-type and parameters
     AMIX     =   0.40;   BMIX     =  1.00
     AMIX_MAG =   1.60;   BMIX_MAG =  1.00
     AMIN     =   0.10
     WC   =   100.;   INIMIX=   1;  MIXPRE=   1;  MAXMIX=  60

 Intra band minimization:
   WEIMIN = 0.0010     energy-eigenvalue tresh-hold
   EBREAK =  0.57E-09  absolut break condition
   DEPER  =   0.30     relativ break condition  

   TIME   =   0.40     timestep for ELM

  volume/ion in A,a.u.               =      22.58       152.36
  Fermi-wavevector in a.u.,A,eV,Ry     =   1.105238  2.088598 16.620223  1.221552
  Thomas-Fermi vector in A             =   2.241723
 
 Write flags
   LWAVE        =      F    write WAVECAR
   LDOWNSAMPLE  =      F    k-point downsampling of WAVECAR
   LCHARG       =      F    write CHGCAR
   LVTOT        =      F    write LOCPOT, total local potential
   LVHAR        =      T    write LOCPOT, Hartree potential only
   LELF         =      F    write electronic localiz. function (ELF)
   LORBIT       =      0    0 simple, 1 ext, 2 COOP (PROOUT), +10 PAW based schemes


 Dipole corrections
   LMONO  =      F    monopole corrections only (constant potential shift)
   LDIPOL =      F    correct potential (dipole corrections)
   IDIPOL =      0    1-x, 2-y, 3-z, 4-all directions 
   EPSILON=  1.0000000 bulk dielectric constant

 Exchange correlation treatment:
   GGA     =    RP    GGA type
   LEXCH   =     9    internal setting for exchange type
   VOSKOWN=      0    Vosko Wilk Nusair interpolation
   LHFCALC =     F    Hartree Fock is set to
   LHFONE  =     F    Hartree Fock one center treatment
   AEXX    =    0.0000 exact exchange contribution

 Linear response parameters
   LEPSILON=     F    determine dielectric tensor
   LRPA    =     F    only Hartree local field effects (RPA)
   LNABLA  =     F    use nabla operator in PAW spheres
   LVEL    =     F    velocity operator in full k-point grid
   LINTERFAST=   F  fast interpolation
   KINTER  =     0    interpolate to denser k-point grid
   CSHIFT  =0.1000    complex shift for real part using Kramers Kronig
   OMEGAMAX=  -1.0    maximum frequency
   DEG_THRESHOLD= 0.2000000E-02 threshold for treating states as degnerate
   RTIME   =   -0.100 relaxation time in fs
  (WPLASMAI=    0.000 imaginary part of plasma frequency in eV, 0.658/RTIME)
   DFIELD  = 0.0000000 0.0000000 0.0000000 field for delta impulse in time
 
 Orbital magnetization related:
   ORBITALMAG=     F  switch on orbital magnetization
   LCHIMAG   =     F  perturbation theory with respect to B field
   DQ        =  0.001000  dq finite difference perturbation B field
   LLRAUG    =     F  two centre corrections for induced B field



--------------------------------------------------------------------------------------------------------


 finite differences
   using selective dynamics as specified on POSCAR
   WARNING: If single coordinates had been selected the selection of coordinates
            is made according to the corresponding   d i r e c t   coordinates!
            Don't support selection of single cartesian coordinates -- sorry ...
  !
 charge density and potential will be updated during run
 spin polarized calculation
 RMM-DIIS sequential band-by-band and
  variant of blocked Davidson during initial phase
 perform sub-space diagonalisation
    before iterative eigenvector-optimisation
 modified Broyden-mixing scheme, WC =      100.0
 initial mixing is a Kerker type mixing with AMIX =  0.4000 and BMIX =      1.0000
 Hartree-type preconditioning will be used
 using additional bands          110
 real space projection scheme for non local part
 use partial core corrections
 calculate Harris-corrections to forces 
   (improved forces if not selfconsistent)
 use gradient corrections 
 use of overlap-Matrix (Vanderbilt PP)
 Gauss-broadening in eV      SIGMA  =   0.05


--------------------------------------------------------------------------------------------------------


  energy-cutoff  :      500.00
  volume of cell :     2144.87
      direct lattice vectors                 reciprocal lattice vectors
    12.808532000  0.000000000  0.000000000     0.078072959  0.000000000  0.000000000
     0.000000000  6.470243000  0.000000000     0.000000000  0.154553701  0.000000000
     0.000000000  0.000000000 25.880972000     0.000000000  0.000000000  0.038638425

  length of vectors
    12.808532000  6.470243000 25.880972000     0.078072959  0.154553701  0.038638425


 
 k-points in units of 2pi/SCALE and weight: Automatic mesh                          
   0.00000000  0.00000000  0.00000000       0.111
   0.02602432  0.00000000  0.00000000       0.222
   0.00000000  0.05151790  0.00000000       0.222
   0.02602432  0.05151790  0.00000000       0.444
 
 k-points in reciprocal lattice and weights: Automatic mesh                          
   0.00000000  0.00000000  0.00000000       0.111
   0.33333333  0.00000000  0.00000000       0.222
   0.00000000  0.33333333  0.00000000       0.222
   0.33333333  0.33333333  0.00000000       0.444
 
 position of ions in fractional coordinates (direct lattice) 
   0.12500000  0.50000000  0.18750000
   0.37500000  0.50000000  0.18750000
   0.12500000  0.00000000  0.06250000
   0.37500000  0.00000000  0.06250000
   0.00000000  0.50000000  0.06250000
   0.25000000  0.50000000  0.06250000
   0.00000000  0.00000000  0.18750000
   0.25000000  0.00000000  0.18750000
   0.12707847  0.50000000  0.44220101
   0.12445708  0.00000000  0.31198785
   0.37533373  0.00000000  0.31200086
   0.00164430  0.50000000  0.31378983
   0.24877575  0.50000000  0.31342515
   0.99666296  0.00000000  0.43534678
   0.25665283  0.00000000  0.43538169
   0.00000000  0.50000000  0.13961000
   0.25000000  0.50000000  0.13961000
   0.00000000  0.00000000  0.01461000
   0.25000000  0.00000000  0.01461000
   0.12500000  0.80844000  0.18750000
   0.37500000  0.80844000  0.18750000
   0.12500000  0.30844000  0.06250000
   0.37500000  0.30844000  0.06250000
   0.00000000  0.50000000  0.23539000
   0.25000000  0.50000000  0.23539000
   0.00000000  0.00000000  0.11039000
   0.25000000  0.00000000  0.11039000
   0.12500000  0.19156000  0.18750000
   0.37500000  0.19156000  0.18750000
   0.12500000  0.69156000  0.06250000
   0.37500000  0.69156000  0.06250000
   0.01662344  0.50000000  0.38635857
   0.23543919  0.50000000  0.38624761
   0.99886690  0.00000000  0.26466879
   0.25004800  0.00000000  0.26438676
   0.12703588  0.81470113  0.44248937
   0.37621279  0.81916033  0.44245378
   0.12496298  0.30843831  0.30917795
   0.37557751  0.30922204  0.31368450
   0.01880762  0.50000000  0.48546631
   0.23353803  0.50000000  0.48643094
   0.99929877  0.00000000  0.36015736
   0.25008712  0.00000000  0.35998099
   0.12703588  0.18529887  0.44248937
   0.37621279  0.18083967  0.44245378
   0.12496298  0.69156169  0.30917795
   0.37557751  0.69077796  0.31368450
   0.62500000  0.50000000  0.18750000
   0.87500000  0.50000000  0.18750000
   0.62500000  0.00000000  0.06250000
   0.87500000  0.00000000  0.06250000
   0.50000000  0.50000000  0.06250000
   0.75000000  0.50000000  0.06250000
   0.50000000  0.00000000  0.18750000
   0.75000000  0.00000000  0.18750000
   0.62592482  0.50000000  0.44175077
   0.62679772  0.00000000  0.31302075
   0.87299466  0.00000000  0.31350503
   0.50183249  0.50000000  0.31377422
   0.74861410  0.50000000  0.31357067
   0.49725382  0.00000000  0.43520893
   0.75758307  0.00000000  0.44807243
   0.50000000  0.50000000  0.13961000
   0.75000000  0.50000000  0.13961000
   0.50000000  0.00000000  0.01461000
   0.75000000  0.00000000  0.01461000
   0.62500000  0.80844000  0.18750000
   0.87500000  0.80844000  0.18750000
   0.62500000  0.30844000  0.06250000
   0.87500000  0.30844000  0.06250000
   0.50000000  0.50000000  0.23539000
   0.75000000  0.50000000  0.23539000
   0.50000000  0.00000000  0.11039000
   0.75000000  0.00000000  0.11039000
   0.62500000  0.19156000  0.18750000
   0.87500000  0.19156000  0.18750000
   0.62500000  0.69156000  0.06250000
   0.87500000  0.69156000  0.06250000
   0.51493906  0.50000000  0.38653191
   0.73301094  0.50000000  0.38611259
   0.50073979  0.00000000  0.26466470
   0.75021926  0.00000000  0.26472688
   0.62549050  0.81328490  0.44131082
   0.87491444  0.81670569  0.43854525
   0.62531700  0.30777083  0.30932694
   0.87467132  0.30888321  0.31436392
   0.51967266  0.50000000  0.48606080
   0.73323518  0.50000000  0.48592587
   0.49959763  0.00000000  0.36001425
   0.74917933  0.00000000  0.36217786
   0.62549050  0.18671510  0.44131082
   0.87491444  0.18329431  0.43854525
   0.62531700  0.69222917  0.30932694
   0.87467132  0.69111679  0.31436392
   0.75052152  0.00000000  0.51617949
 
 position of ions in cartesian coordinates  (Angst):
   1.60106650  3.23512150  4.85268225
   4.80319950  3.23512150  4.85268225
   1.60106650  0.00000000  1.61756075
   4.80319950  0.00000000  1.61756075
   0.00000000  3.23512150  1.61756075
   3.20213300  3.23512150  1.61756075
   0.00000000  0.00000000  4.85268225
   3.20213300  0.00000000  4.85268225
   1.62768860  3.23512150 11.44459198
   1.59411254  0.00000000  8.07454873
   4.80747408  0.00000000  8.07488542
   0.02106105  3.23512150  8.12118570
   3.18645217  3.23512150  8.11174752
  12.76578941  0.00000000 11.26719794
   3.28734601  0.00000000 11.26810135
   0.00000000  3.23512150  3.61324250
   3.20213300  3.23512150  3.61324250
   0.00000000  0.00000000  0.37812100
   3.20213300  0.00000000  0.37812100
   1.60106650  5.23080325  4.85268225
   4.80319950  5.23080325  4.85268225
   1.60106650  1.99568175  1.61756075
   4.80319950  1.99568175  1.61756075
   0.00000000  3.23512150  6.09212200
   3.20213300  3.23512150  6.09212200
   0.00000000  0.00000000  2.85700050
   3.20213300  0.00000000  2.85700050
   1.60106650  1.23943975  4.85268225
   4.80319950  1.23943975  4.85268225
   1.60106650  4.47456125  1.61756075
   4.80319950  4.47456125  1.61756075
   0.21292181  3.23512150  9.99933525
   3.01563035  3.23512150  9.99646363
  12.79401859  0.00000000  6.84988547
   3.20274786  0.00000000  6.84258629
   1.62714310  5.27131430 11.45205487
   4.81873357  5.30016639 11.45113378
   1.60059232  1.99567080  8.00182591
   4.81059653  2.00074174  8.11845971
   0.24089805  3.23512150 12.56433998
   2.99127935  3.23512150 12.58930562
  12.79955021  0.00000000  9.32122259
   3.20324884  0.00000000  9.31665798
   1.62714310  1.19892870 11.45205487
   4.81873357  1.17007661 11.45113378
   1.60059232  4.47457220  8.00182591
   4.81059653  4.46950126  8.11845971
   8.00533250  3.23512150  4.85268225
  11.20746550  3.23512150  4.85268225
   8.00533250  0.00000000  1.61756075
  11.20746550  0.00000000  1.61756075
   6.40426600  3.23512150  1.61756075
   9.60639900  3.23512150  1.61756075
   6.40426600  0.00000000  4.85268225
   9.60639900  0.00000000  4.85268225
   8.01717809  3.23512150 11.43293942
   8.02835864  0.00000000  8.10128126
  11.18178008  0.00000000  8.11381503
   6.42773745  3.23512150  8.12078185
   9.58864763  3.23512150  8.11551379
   6.36909147  0.00000000 11.26363007
   9.70352693  0.00000000 11.59655011
   6.40426600  3.23512150  3.61324250
   9.60639900  3.23512150  3.61324250
   6.40426600  0.00000000  0.37812100
   9.60639900  0.00000000  0.37812100
   8.00533250  5.23080325  4.85268225
  11.20746550  5.23080325  4.85268225
   8.00533250  1.99568175  1.61756075
  11.20746550  1.99568175  1.61756075
   6.40426600  3.23512150  6.09212200
   9.60639900  3.23512150  6.09212200
   6.40426600  0.00000000  2.85700050
   9.60639900  0.00000000  2.85700050
   8.00533250  1.23943975  4.85268225
  11.20746550  1.23943975  4.85268225
   8.00533250  4.47456125  1.61756075
  11.20746550  4.47456125  1.61756075
   6.59561349  3.23512150 10.00382151
   9.38879413  3.23512150  9.99296916
   6.41374157  0.00000000  6.84977959
   9.60920734  0.00000000  6.85138890
   8.01161504  5.26215092 11.42155291
  11.20636966  5.28428424 11.34997728
   8.00939275  1.99135208  8.00568189
  11.20325558  1.99854942  8.13604387
   6.65624386  3.23512150 12.57972587
   9.39166623  3.23512150 12.57623377
   6.39911222  0.00000000  9.31751863
   9.59588746  0.00000000  9.37351506
   8.01161504  1.20809208 11.42155291
  11.20636966  1.18595876 11.34997728
   8.00939275  4.47889092  8.00568189
  11.20325558  4.47169358  8.13604387
   9.61307885  0.00000000 13.35922690
 


--------------------------------------------------------------------------------------------------------


 k-point  1 :   0.0000 0.0000 0.0000  plane waves:   54455
 k-point  2 :   0.3333 0.0000 0.0000  plane waves:   54459
 k-point  3 :   0.0000 0.3333 0.0000  plane waves:   54468
 k-point  4 :   0.3333 0.3333 0.0000  plane waves:   54434

 maximum and minimum number of plane-waves per node :     54468    54434

 maximum number of plane-waves:     54468
 maximum index in each direction: 
   IXMAX=   23   IYMAX=   11   IZMAX=   47
   IXMIN=  -23   IYMIN=  -12   IZMIN=  -47


 serial   3D FFT for wavefunctions
 parallel 3D FFT for charge:
    minimum data exchange during FFTs selected (reduces bandwidth)


 total amount of memory used by VASP MPI-rank0   171216. kBytes
=======================================================================

   base      :      30000. kBytes
   nonlr-proj:      18719. kBytes
   fftplans  :       4196. kBytes
   grid      :      37119. kBytes
   one-center:       2954. kBytes
   wavefun   :      78228. kBytes
 
     INWAV:  cpu time    0.0000: real time    0.0002
 Broyden mixing: mesh for mixing (old mesh)
   NGX = 47   NGY = 23   NGZ = 95
  (NGX  =140   NGY  = 72   NGZ  =288)
  gives a total of 102695 points

 initial charge density was supplied:
 charge density of overlapping atoms calculated
 number of electron     660.0000000 magnetization      57.0000000
 keeping initial charge density in first step


--------------------------------------------------------------------------------------------------------


 Maximum index for non-local projection operator         2429
 Maximum index for augmentation-charges          641 (set IRDMAX)


--------------------------------------------------------------------------------------------------------


 First call to EWALD:  gamma=   0.137
 Maximum number of real-space cells 3x 5x 2
 Maximum number of reciprocal cells 3x 2x 5

    FEWALD:  cpu time    0.0052: real time    0.0052


--------------------------------------- Iteration      1(   1)  ---------------------------------------


    POTLOK:  cpu time    0.1430: real time    0.1498
    SETDIJ:  cpu time    0.0205: real time    0.0224
     EDDAV:  cpu time   15.2342: real time   15.3049
       DOS:  cpu time    0.0014: real time    0.0027
    --------------------------------------------
      LOOP:  cpu time   15.3991: real time   15.4798

 eigenvalue-minimisations  :  7040
 total energy-change (2. order) : 0.7063530E+04  (-0.2957299E+05)
 number of electron     660.0000000 magnetization      57.0000000
 augmentation part      660.0000000 magnetization      57.0000000

 Free energy of the ion-electron system (eV)
  ---------------------------------------------------
  alpha Z        PSCENC =      1632.74823113
  Ewald energy   TEWEN  =    222841.60604419
  -Hartree energ DENC   =   -267033.95501019
  -exchange      EXHF   =         0.00000000
  -V(xc)+E(xc)   XCENC  =      1260.26499484
  PAW double counting   =     39104.55472761   -37966.25523736
  entropy T*S    EENTRO =        -0.05731099
  eigenvalues    EBANDS =      2342.32522946
  atomic energy  EATOM  =     44882.29841852
  Solvation  Ediel_sol  =         0.00000000
  ---------------------------------------------------
  free energy    TOTEN  =      7063.53008720 eV

  energy without entropy =     7063.58739819  energy(sigma->0) =     7063.55874270


--------------------------------------------------------------------------------------------------------




--------------------------------------- Iteration      1(   2)  ---------------------------------------


     EDDAV:  cpu time   15.7887: real time   15.8333
       DOS:  cpu time    0.0009: real time    0.0009
    --------------------------------------------
      LOOP:  cpu time   15.7896: real time   15.8342

 eigenvalue-minimisations  :  7360
 total energy-change (2. order) :-0.6658137E+04  (-0.6095926E+04)
 number of electron     660.0000000 magnetization      57.0000000
 augmentation part      660.0000000 magnetization      57.0000000

 Free energy of the ion-electron system (eV)
  ---------------------------------------------------
  alpha Z        PSCENC =      1632.74823113
  Ewald energy   TEWEN  =    222841.60604419
  -Hartree energ DENC   =   -267033.95501019
  -exchange      EXHF   =         0.00000000
  -V(xc)+E(xc)   XCENC  =      1260.26499484
  PAW double counting   =     39104.55472761   -37966.25523736
  entropy T*S    EENTRO =        -0.05189049
  eigenvalues    EBANDS =     -4315.81749845
  atomic energy  EATOM  =     44882.29841852
  Solvation  Ediel_sol  =         0.00000000
  ---------------------------------------------------
  free energy    TOTEN  =       405.39277980 eV

  energy without entropy =      405.44467028  energy(sigma->0) =      405.41872504


--------------------------------------------------------------------------------------------------------




--------------------------------------- Iteration      1(   3)  ---------------------------------------


     EDDAV:  cpu time   18.8530: real time   18.9181
       DOS:  cpu time    0.0008: real time    0.0008
    --------------------------------------------
      LOOP:  cpu time   18.8539: real time   18.9189

 eigenvalue-minimisations  :  9120
 total energy-change (2. order) :-0.1095927E+04  (-0.1050823E+04)
 number of electron     660.0000000 magnetization      57.0000000
 augmentation part      660.0000000 magnetization      57.0000000

 Free energy of the ion-electron system (eV)
  ---------------------------------------------------
  alpha Z        PSCENC =      1632.74823113
  Ewald energy   TEWEN  =    222841.60604419
  -Hartree energ DENC   =   -267033.95501019
  -exchange      EXHF   =         0.00000000
  -V(xc)+E(xc)   XCENC  =      1260.26499484
  PAW double counting   =     39104.55472761   -37966.25523736
  entropy T*S    EENTRO =        -0.07815958
  eigenvalues    EBANDS =     -5411.71792814
  atomic energy  EATOM  =     44882.29841852
  Solvation  Ediel_sol  =         0.00000000
  ---------------------------------------------------
  free energy    TOTEN  =      -690.53391899 eV

  energy without entropy =     -690.45575941  energy(sigma->0) =     -690.49483920


--------------------------------------------------------------------------------------------------------




--------------------------------------- Iteration      1(   4)  ---------------------------------------


     EDDAV:  cpu time   17.7436: real time   17.8218
       DOS:  cpu time    0.0010: real time    0.0010
    --------------------------------------------
      LOOP:  cpu time   17.7445: real time   17.8228

 eigenvalue-minimisations  :  8520
 total energy-change (2. order) :-0.4734759E+02  (-0.4647040E+02)
 number of electron     660.0000000 magnetization      57.0000000
 augmentation part      660.0000000 magnetization      57.0000000

 Free energy of the ion-electron system (eV)
  ---------------------------------------------------
  alpha Z        PSCENC =      1632.74823113
  Ewald energy   TEWEN  =    222841.60604419
  -Hartree energ DENC   =   -267033.95501019
  -exchange      EXHF   =         0.00000000
  -V(xc)+E(xc)   XCENC  =      1260.26499484
  PAW double counting   =     39104.55472761   -37966.25523736
  entropy T*S    EENTRO =        -0.08686235
  eigenvalues    EBANDS =     -5459.05681246
  atomic energy  EATOM  =     44882.29841852
  Solvation  Ediel_sol  =         0.00000000
  ---------------------------------------------------
  free energy    TOTEN  =      -737.88150608 eV

  energy without entropy =     -737.79464373  energy(sigma->0) =     -737.83807490


--------------------------------------------------------------------------------------------------------




--------------------------------------- Iteration      1(   5)  ---------------------------------------


     EDDAV:  cpu time   17.9887: real time   18.0474
       DOS:  cpu time    0.0008: real time    0.0008
    CHARGE:  cpu time    0.7280: real time    0.7302
    MIXING:  cpu time    0.0036: real time    0.0045
    --------------------------------------------
      LOOP:  cpu time   18.7212: real time   18.7830

 eigenvalue-minimisations  :  8640
 total energy-change (2. order) :-0.1330630E+01  (-0.1326813E+01)
 number of electron     660.0000492 magnetization      53.2766915
 augmentation part      112.2321278 magnetization      44.5276914

 Broyden mixing:
  rms(total) = 0.17758E+02    rms(broyden)= 0.17757E+02
  rms(prec ) = 0.17994E+02
  weight for this iteration     100.00

 Free energy of the ion-electron system (eV)
  ---------------------------------------------------
  alpha Z        PSCENC =      1632.74823113
  Ewald energy   TEWEN  =    222841.60604419
  -Hartree energ DENC   =   -267033.95501019
  -exchange      EXHF   =         0.00000000
  -V(xc)+E(xc)   XCENC  =      1260.26499484
  PAW double counting   =     39104.55472761   -37966.25523736
  entropy T*S    EENTRO =        -0.08744664
  eigenvalues    EBANDS =     -5460.38685777
  atomic energy  EATOM  =     44882.29841852
  Solvation  Ediel_sol  =         0.00000000
  ---------------------------------------------------
  free energy    TOTEN  =      -739.21213568 eV

  energy without entropy =     -739.12468904  energy(sigma->0) =     -739.16841236


--------------------------------------------------------------------------------------------------------




--------------------------------------- Iteration      1(   6)  ---------------------------------------


    POTLOK:  cpu time    0.1158: real time    0.1186
    SETDIJ:  cpu time    0.0199: real time    0.0199
    EDDIAG:  cpu time    3.0511: real time    3.0635
  RMM-DIIS:  cpu time    8.2545: real time    8.2801
    ORTHCH:  cpu time    0.7090: real time    0.7110
       DOS:  cpu time    0.0009: real time    0.0009
    CHARGE:  cpu time    0.7248: real time    0.7266
    MIXING:  cpu time    0.0029: real time    0.0029
    --------------------------------------------
      LOOP:  cpu time   12.8788: real time   12.9235

 eigenvalue-minimisations  :  7047
 total energy-change (2. order) : 0.1332837E+03  (-0.7190378E+02)
 number of electron     660.0000431 magnetization      50.2335516
 augmentation part      123.3734206 magnetization      37.9586025

 Broyden mixing:
  rms(total) = 0.10830E+02    rms(broyden)= 0.10827E+02
  rms(prec ) = 0.11262E+02
  weight for this iteration     100.00

 eigenvalues of (default mixing * dielectric matrix)
  average eigenvalue GAMMA=   0.9475
  0.9475

 Free energy of the ion-electron system (eV)
  ---------------------------------------------------
  alpha Z        PSCENC =      1632.74823113
  Ewald energy   TEWEN  =    222841.60604419
  -Hartree energ DENC   =   -267342.96264745
  -exchange      EXHF   =         0.00000000
  -V(xc)+E(xc)   XCENC  =      1343.13683824
  PAW double counting   =     46832.46544320   -45757.52908922
  entropy T*S    EENTRO =        -0.08130781
  eigenvalues    EBANDS =     -5037.61038329
  atomic energy  EATOM  =     44882.29841852
  Solvation  Ediel_sol  =         0.00000000
  ---------------------------------------------------
  free energy    TOTEN  =      -605.92845250 eV

  energy without entropy =     -605.84714469  energy(sigma->0) =     -605.88779860


--------------------------------------------------------------------------------------------------------




--------------------------------------- Iteration      1(   7)  ---------------------------------------


    POTLOK:  cpu time    0.1159: real time    0.1256
    SETDIJ:  cpu time    0.0198: real time    0.0198
    EDDIAG:  cpu time    3.0517: real time    3.0605
  RMM-DIIS:  cpu time    8.2482: real time    8.2716
    ORTHCH:  cpu time    0.7109: real time    0.7127
       DOS:  cpu time    0.0008: real time    0.0008
    CHARGE:  cpu time    0.7226: real time    0.7248
    MIXING:  cpu time    0.0028: real time    0.0028
    --------------------------------------------
      LOOP:  cpu time   12.8727: real time   12.9186

 eigenvalue-minimisations  :  7054
 total energy-change (2. order) :-0.1838856E+03  (-0.2955015E+02)
 number of electron     660.0000421 magnetization      49.7867375
 augmentation part      115.8106183 magnetization      41.0678779

 Broyden mixing:
  rms(total) = 0.24846E+02    rms(broyden)= 0.24845E+02
  rms(prec ) = 0.27084E+02
  weight for this iteration     100.00

 eigenvalues of (default mixing * dielectric matrix)
  average eigenvalue GAMMA=   0.5148
  0.9848  0.0447

 Free energy of the ion-electron system (eV)
  ---------------------------------------------------
  alpha Z        PSCENC =      1632.74823113
  Ewald energy   TEWEN  =    222841.60604419
  -Hartree energ DENC   =   -268107.28286803
  -exchange      EXHF   =         0.00000000
  -V(xc)+E(xc)   XCENC  =      1307.66107177
  PAW double counting   =     51943.71059682   -50874.02570782
  entropy T*S    EENTRO =        -0.03532559
  eigenvalues    EBANDS =     -4416.49450796
  atomic energy  EATOM  =     44882.29841852
  Solvation  Ediel_sol  =         0.00000000
  ---------------------------------------------------
  free energy    TOTEN  =      -789.81404698 eV

  energy without entropy =     -789.77872139  energy(sigma->0) =     -789.79638419


--------------------------------------------------------------------------------------------------------




--------------------------------------- Iteration      1(   8)  ---------------------------------------


    POTLOK:  cpu time    0.1147: real time    0.1153
    SETDIJ:  cpu time    0.0197: real time    0.0197
    EDDIAG:  cpu time    3.0528: real time    3.0611
  RMM-DIIS:  cpu time    8.2496: real time    8.2730
    ORTHCH:  cpu time    0.7093: real time    0.7112
       DOS:  cpu time    0.0009: real time    0.0009
    CHARGE:  cpu time    0.7227: real time    0.7245
    MIXING:  cpu time    0.0034: real time    0.0034
    --------------------------------------------
      LOOP:  cpu time   12.8729: real time   12.9091

 eigenvalue-minimisations  :  7055
 total energy-change (2. order) : 0.9445239E+02  (-0.1991681E+01)
 number of electron     660.0000446 magnetization      46.5958752
 augmentation part      115.6306771 magnetization      38.2963594

 Broyden mixing:
  rms(total) = 0.91149E+01    rms(broyden)= 0.91144E+01
  rms(prec ) = 0.10487E+02
  weight for this iteration     100.00

 eigenvalues of (default mixing * dielectric matrix)
  average eigenvalue GAMMA=   0.6743
  1.4216  0.5062  0.0950

 Free energy of the ion-electron system (eV)
  ---------------------------------------------------
  alpha Z        PSCENC =      1632.74823113
  Ewald energy   TEWEN  =    222841.60604419
  -Hartree energ DENC   =   -268009.90647890
  -exchange      EXHF   =         0.00000000
  -V(xc)+E(xc)   XCENC  =      1308.51442658
  PAW double counting   =     52709.87736933   -51642.37681437
  entropy T*S    EENTRO =        -0.06473206
  eigenvalues    EBANDS =     -4418.05811883
  atomic energy  EATOM  =     44882.29841852
  Solvation  Ediel_sol  =         0.00000000
  ---------------------------------------------------
  free energy    TOTEN  =      -695.36165441 eV

  energy without entropy =     -695.29692235  energy(sigma->0) =     -695.32928838


--------------------------------------------------------------------------------------------------------




--------------------------------------- Iteration      1(   9)  ---------------------------------------


    POTLOK:  cpu time    0.1167: real time    0.1184
    SETDIJ:  cpu time    0.0199: real time    0.0199
    EDDIAG:  cpu time    3.0503: real time    3.0595
  RMM-DIIS:  cpu time    8.1825: real time    8.2097
    ORTHCH:  cpu time    0.7069: real time    0.7088
       DOS:  cpu time    0.0008: real time    0.0008
    CHARGE:  cpu time    0.7085: real time    0.7256
    MIXING:  cpu time    0.0032: real time    0.0032
    --------------------------------------------
      LOOP:  cpu time   12.7887: real time   12.8460

 eigenvalue-minimisations  :  7040
 total energy-change (2. order) : 0.6718644E+02  (-0.9773266E+01)
 number of electron     660.0000482 magnetization      44.4667555
 augmentation part      116.3927537 magnetization      37.9384227

 Broyden mixing:
  rms(total) = 0.96143E+01    rms(broyden)= 0.96126E+01
  rms(prec ) = 0.10650E+02
  weight for this iteration     100.00

 eigenvalues of (default mixing * dielectric matrix)
  average eigenvalue GAMMA=   0.6407
  1.7606  0.4867  0.1058  0.2099

 Free energy of the ion-electron system (eV)
  ---------------------------------------------------
  alpha Z        PSCENC =      1632.74823113
  Ewald energy   TEWEN  =    222841.60604419
  -Hartree energ DENC   =   -267085.68914417
  -exchange      EXHF   =         0.00000000
  -V(xc)+E(xc)   XCENC  =      1317.64992142
  PAW double counting   =     55312.13985095   -54259.86618887
  entropy T*S    EENTRO =        -0.05552344
  eigenvalues    EBANDS =     -5269.00681935
  atomic energy  EATOM  =     44882.29841852
  Solvation  Ediel_sol  =         0.00000000
  ---------------------------------------------------
  free energy    TOTEN  =      -628.17520962 eV

  energy without entropy =     -628.11968618  energy(sigma->0) =     -628.14744790


--------------------------------------------------------------------------------------------------------




--------------------------------------- Iteration      1(  10)  ---------------------------------------


    POTLOK:  cpu time    0.1156: real time    0.1173
    SETDIJ:  cpu time    0.0197: real time    0.0197
    EDDIAG:  cpu time    3.0493: real time    3.0577
  RMM-DIIS:  cpu time    8.2526: real time    8.2762
    ORTHCH:  cpu time    0.7079: real time    0.7097
       DOS:  cpu time    0.0009: real time    0.0009
    CHARGE:  cpu time    0.7269: real time    0.7288
    MIXING:  cpu time    0.0036: real time    0.0053
    --------------------------------------------
      LOOP:  cpu time   12.8764: real time   12.9157

 eigenvalue-minimisations  :  7043
 total energy-change (2. order) : 0.5321777E+02  (-0.2547505E+01)
 number of electron     660.0000474 magnetization      41.4394471
 augmentation part      116.4381607 magnetization      33.3724963

 Broyden mixing:
  rms(total) = 0.34898E+01    rms(broyden)= 0.34885E+01
  rms(prec ) = 0.38797E+01
  weight for this iteration     100.00

 eigenvalues of (default mixing * dielectric matrix)
  average eigenvalue GAMMA=   0.6892
  2.1099  0.4981  0.4981  0.1032  0.2368

 Free energy of the ion-electron system (eV)
  ---------------------------------------------------
  alpha Z        PSCENC =      1632.74823113
  Ewald energy   TEWEN  =    222841.60604419
  -Hartree energ DENC   =   -267429.97054199
  -exchange      EXHF   =         0.00000000
  -V(xc)+E(xc)   XCENC  =      1320.90816009
  PAW double counting   =     57646.68879624   -56602.97536616
  entropy T*S    EENTRO =        -0.08545274
  eigenvalues    EBANDS =     -4866.17572524
  atomic energy  EATOM  =     44882.29841852
  Solvation  Ediel_sol  =         0.00000000
  ---------------------------------------------------
  free energy    TOTEN  =      -574.95743597 eV

  energy without entropy =     -574.87198324  energy(sigma->0) =     -574.91470960


--------------------------------------------------------------------------------------------------------




--------------------------------------- Iteration      1(  11)  ---------------------------------------


    POTLOK:  cpu time    0.1156: real time    0.1162
    SETDIJ:  cpu time    0.0197: real time    0.0197
    EDDIAG:  cpu time    3.0451: real time    3.0548
  RMM-DIIS:  cpu time    8.2685: real time    8.2922
    ORTHCH:  cpu time    0.7101: real time    0.7125
       DOS:  cpu time    0.0008: real time    0.0008
    CHARGE:  cpu time    0.7258: real time    0.7277
    MIXING:  cpu time    0.0037: real time    0.0037
    --------------------------------------------
      LOOP:  cpu time   12.8893: real time   12.9276

 eigenvalue-minimisations  :  7069
 total energy-change (2. order) :-0.3843456E+01  (-0.2660942E+01)
 number of electron     660.0000446 magnetization      40.3709768
 augmentation part      117.6941907 magnetization      32.9549671

 Broyden mixing:
  rms(total) = 0.43755E+01    rms(broyden)= 0.43734E+01
  rms(prec ) = 0.53882E+01
  weight for this iteration     100.00

 eigenvalues of (default mixing * dielectric matrix)
  average eigenvalue GAMMA=   0.6379
  2.0967  0.5485  0.5485  0.3302  0.1030  0.2006

 Free energy of the ion-electron system (eV)
  ---------------------------------------------------
  alpha Z        PSCENC =      1632.74823113
  Ewald energy   TEWEN  =    222841.60604419
  -Hartree energ DENC   =   -267316.53728315
  -exchange      EXHF   =         0.00000000
  -V(xc)+E(xc)   XCENC  =      1323.42924781
  PAW double counting   =     59586.28879163   -58552.23395586
  entropy T*S    EENTRO =        -0.06549926
  eigenvalues    EBANDS =     -4976.33488726
  atomic energy  EATOM  =     44882.29841852
  Solvation  Ediel_sol  =         0.00000000
  ---------------------------------------------------
  free energy    TOTEN  =      -578.80089225 eV

  energy without entropy =     -578.73539299  energy(sigma->0) =     -578.76814262


--------------------------------------------------------------------------------------------------------




--------------------------------------- Iteration      1(  12)  ---------------------------------------


    POTLOK:  cpu time    0.1168: real time    0.1263
    SETDIJ:  cpu time    0.0196: real time    0.0197
    EDDIAG:  cpu time    3.0847: real time    3.0931
  RMM-DIIS:  cpu time    8.2526: real time    8.2751
    ORTHCH:  cpu time    0.7059: real time    0.7077
       DOS:  cpu time    0.0008: real time    0.0008
    CHARGE:  cpu time    0.7229: real time    0.7248
    MIXING:  cpu time    0.0039: real time    0.0039
    --------------------------------------------
      LOOP:  cpu time   12.9072: real time   12.9515

 eigenvalue-minimisations  :  7042
 total energy-change (2. order) :-0.2724993E+01  (-0.5413893E+00)
 number of electron     660.0000471 magnetization      39.3327405
 augmentation part      118.0597633 magnetization      31.0679083

 Broyden mixing:
  rms(total) = 0.44377E+01    rms(broyden)= 0.44344E+01
  rms(prec ) = 0.55690E+01
  weight for this iteration     100.00

 eigenvalues of (default mixing * dielectric matrix)
  average eigenvalue GAMMA=   0.6071
  2.2471  0.5668  0.4777  0.4777  0.1025  0.1892  0.1892

 Free energy of the ion-electron system (eV)
  ---------------------------------------------------
  alpha Z        PSCENC =      1632.74823113
  Ewald energy   TEWEN  =    222841.60604419
  -Hartree energ DENC   =   -267344.63409422
  -exchange      EXHF   =         0.00000000
  -V(xc)+E(xc)   XCENC  =      1322.07839160
  PAW double counting   =     59425.62292055   -58391.93914687
  entropy T*S    EENTRO =        -0.05735292
  eigenvalues    EBANDS =     -4949.24929691
  atomic energy  EATOM  =     44882.29841852
  Solvation  Ediel_sol  =         0.00000000
  ---------------------------------------------------
  free energy    TOTEN  =      -581.52588493 eV

  energy without entropy =     -581.46853201  energy(sigma->0) =     -581.49720847


--------------------------------------------------------------------------------------------------------




--------------------------------------- Iteration      1(  13)  ---------------------------------------


    POTLOK:  cpu time    0.1148: real time    0.1156
    SETDIJ:  cpu time    0.0197: real time    0.0197
    EDDIAG:  cpu time    3.0478: real time    3.0565
  RMM-DIIS:  cpu time    8.2438: real time    8.2667
    ORTHCH:  cpu time    0.7080: real time    0.7097
       DOS:  cpu time    0.0009: real time    0.0009
    CHARGE:  cpu time    0.7269: real time    0.7290
    MIXING:  cpu time    0.0041: real time    0.0041
    --------------------------------------------
      LOOP:  cpu time   12.8659: real time   12.9023

 eigenvalue-minimisations  :  7040
 total energy-change (2. order) : 0.1043622E+02  (-0.2987155E+00)
 number of electron     660.0000454 magnetization      38.5519796
 augmentation part      117.6966456 magnetization      30.8016911

 Broyden mixing:
  rms(total) = 0.20742E+01    rms(broyden)= 0.20724E+01
  rms(prec ) = 0.21279E+01
  weight for this iteration     100.00

 eigenvalues of (default mixing * dielectric matrix)
  average eigenvalue GAMMA=   0.5703
  2.2456  0.5747  0.5103  0.5103  0.1025  0.2287  0.2287  0.1615

 Free energy of the ion-electron system (eV)
  ---------------------------------------------------
  alpha Z        PSCENC =      1632.74823113
  Ewald energy   TEWEN  =    222841.60604419
  -Hartree energ DENC   =   -267346.11663447
  -exchange      EXHF   =         0.00000000
  -V(xc)+E(xc)   XCENC  =      1321.78690113
  PAW double counting   =     59896.40751439   -58864.65268728
  entropy T*S    EENTRO =        -0.06974521
  eigenvalues    EBANDS =     -4935.09771176
  atomic energy  EATOM  =     44882.29841852
  Solvation  Ediel_sol  =         0.00000000
  ---------------------------------------------------
  free energy    TOTEN  =      -571.08966937 eV

  energy without entropy =     -571.01992416  energy(sigma->0) =     -571.05479676


--------------------------------------------------------------------------------------------------------




--------------------------------------- Iteration      1(  14)  ---------------------------------------


    POTLOK:  cpu time    0.1147: real time    0.1153
    SETDIJ:  cpu time    0.0196: real time    0.0197
    EDDIAG:  cpu time    3.0433: real time    3.0525
  RMM-DIIS:  cpu time    8.2454: real time    8.2679
    ORTHCH:  cpu time    0.7082: real time    0.7099
       DOS:  cpu time    0.0009: real time    0.0009
    CHARGE:  cpu time    0.7239: real time    0.7260
    MIXING:  cpu time    0.0050: real time    0.0050
    --------------------------------------------
      LOOP:  cpu time   12.8610: real time   12.8971

 eigenvalue-minimisations  :  7047
 total energy-change (2. order) :-0.1907376E+01  (-0.9620162E-01)
 number of electron     660.0000460 magnetization      36.6776795
 augmentation part      117.6376838 magnetization      28.7144994

 Broyden mixing:
  rms(total) = 0.17391E+01    rms(broyden)= 0.17388E+01
  rms(prec ) = 0.18481E+01
  weight for this iteration     100.00

 eigenvalues of (default mixing * dielectric matrix)
  average eigenvalue GAMMA=   0.5767
  2.2167  0.6398  0.6398  0.5968  0.3211  0.3211  0.1024  0.2039  0.1490

 Free energy of the ion-electron system (eV)
  ---------------------------------------------------
  alpha Z        PSCENC =      1632.74823113
  Ewald energy   TEWEN  =    222841.60604419
  -Hartree energ DENC   =   -267346.70036416
  -exchange      EXHF   =         0.00000000
  -V(xc)+E(xc)   XCENC  =      1320.10192304
  PAW double counting   =     59860.52550556   -58828.90251923
  entropy T*S    EENTRO =        -0.07518536
  eigenvalues    EBANDS =     -4934.59909904
  atomic energy  EATOM  =     44882.29841852
  Solvation  Ediel_sol  =         0.00000000
  ---------------------------------------------------
  free energy    TOTEN  =      -572.99704536 eV

  energy without entropy =     -572.92186000  energy(sigma->0) =     -572.95945268


--------------------------------------------------------------------------------------------------------




--------------------------------------- Iteration      1(  15)  ---------------------------------------


    POTLOK:  cpu time    0.1158: real time    0.1171
    SETDIJ:  cpu time    0.0198: real time    0.0199
    EDDIAG:  cpu time    3.0374: real time    3.0706
  RMM-DIIS:  cpu time    8.2413: real time    8.2645
    ORTHCH:  cpu time    0.7092: real time    0.7111
       DOS:  cpu time    0.0009: real time    0.0009
    CHARGE:  cpu time    0.7256: real time    0.7275
    MIXING:  cpu time    0.0052: real time    0.0052
    --------------------------------------------
      LOOP:  cpu time   12.8552: real time   12.9167

 eigenvalue-minimisations  :  7040
 total energy-change (2. order) :-0.4098760E+01  (-0.1488601E+00)
 number of electron     660.0000455 magnetization      33.9758639
 augmentation part      117.7046392 magnetization      26.1413535

 Broyden mixing:
  rms(total) = 0.20454E+01    rms(broyden)= 0.20451E+01
  rms(prec ) = 0.20986E+01
  weight for this iteration     100.00

 eigenvalues of (default mixing * dielectric matrix)
  average eigenvalue GAMMA=   0.6078
  2.1929  0.9059  0.9059  0.6172  0.3959  0.3959  0.1024  0.2086  0.2086  0.1448

 Free energy of the ion-electron system (eV)
  ---------------------------------------------------
  alpha Z        PSCENC =      1632.74823113
  Ewald energy   TEWEN  =    222841.60604419
[...]
     11.203256  1.998549  8.136044            0           0           0  
      6.656244  3.235121 12.579726            0           0           0  
      9.391666  3.235121 12.576234            0           0           0  
      6.399112  0.000000  9.317519            0           0           0  
      9.595887  0.000000  9.373515            0           0           0  
      8.011615  1.208092 11.421553            0           0           0  
     11.206370  1.185959 11.349977            0           0           0  
      8.009393  4.478891  8.005682            0           0           0  
     11.203256  4.471694  8.136044            0           0           0  
      9.613079  0.000000 13.359227    -0.074967    0.000140    0.997186  
 
   2 f  =    5.825671 THz    36.603769 2PiTHz  194.323456 cm-1    24.093047 meV
             X         Y         Z           dx          dy          dz
      1.601066  3.235121  4.852682            0           0           0  
      4.803199  3.235121  4.852682            0           0           0  
      1.601066  0.000000  1.617561            0           0           0  
      4.803199  0.000000  1.617561            0           0           0  
      0.000000  3.235121  1.617561            0           0           0  
      3.202133  3.235121  1.617561            0           0           0  
      0.000000  0.000000  4.852682            0           0           0  
      3.202133  0.000000  4.852682            0           0           0  
      1.627689  3.235121 11.444592            0           0           0  
      1.594113  0.000000  8.074549            0           0           0  
      4.807474  0.000000  8.074885            0           0           0  
      0.021061  3.235121  8.121186            0           0           0  
      3.186452  3.235121  8.111748            0           0           0  
     12.765789  0.000000 11.267198            0           0           0  
      3.287346  0.000000 11.268101            0           0           0  
      0.000000  3.235121  3.613243            0           0           0  
      3.202133  3.235121  3.613243            0           0           0  
      0.000000  0.000000  0.378121            0           0           0  
      3.202133  0.000000  0.378121            0           0           0  
      1.601066  5.230803  4.852682            0           0           0  
      4.803199  5.230803  4.852682            0           0           0  
      1.601066  1.995682  1.617561            0           0           0  
      4.803199  1.995682  1.617561            0           0           0  
      0.000000  3.235121  6.092122            0           0           0  
      3.202133  3.235121  6.092122            0           0           0  
      0.000000  0.000000  2.857000            0           0           0  
      3.202133  0.000000  2.857000            0           0           0  
      1.601066  1.239440  4.852682            0           0           0  
      4.803199  1.239440  4.852682            0           0           0  
      1.601066  4.474561  1.617561            0           0           0  
      4.803199  4.474561  1.617561            0           0           0  
      0.212922  3.235121  9.999335            0           0           0  
      3.015630  3.235121  9.996464            0           0           0  
     12.794019  0.000000  6.849885            0           0           0  
      3.202748  0.000000  6.842586            0           0           0  
      1.627143  5.271314 11.452055            0           0           0  
      4.818734  5.300166 11.451134            0           0           0  
      1.600592  1.995671  8.001826            0           0           0  
      4.810597  2.000742  8.118460            0           0           0  
      0.240898  3.235121 12.564340            0           0           0  
      2.991279  3.235121 12.589306            0           0           0  
     12.799550  0.000000  9.321223            0           0           0  
      3.203249  0.000000  9.316658            0           0           0  
      1.627143  1.198929 11.452055            0           0           0  
      4.818734  1.170077 11.451134            0           0           0  
      1.600592  4.474572  8.001826            0           0           0  
      4.810597  4.469501  8.118460            0           0           0  
      8.005332  3.235121  4.852682            0           0           0  
     11.207465  3.235121  4.852682            0           0           0  
      8.005332  0.000000  1.617561            0           0           0  
     11.207465  0.000000  1.617561            0           0           0  
      6.404266  3.235121  1.617561            0           0           0  
      9.606399  3.235121  1.617561            0           0           0  
      6.404266  0.000000  4.852682            0           0           0  
      9.606399  0.000000  4.852682            0           0           0  
      8.017178  3.235121 11.432939            0           0           0  
      8.028359  0.000000  8.101281            0           0           0  
     11.181780  0.000000  8.113815            0           0           0  
      6.427737  3.235121  8.120782            0           0           0  
      9.588648  3.235121  8.115514            0           0           0  
      6.369091  0.000000 11.263630            0           0           0  
      9.703527  0.000000 11.596550            0           0           0  
      6.404266  3.235121  3.613243            0           0           0  
      9.606399  3.235121  3.613243            0           0           0  
      6.404266  0.000000  0.378121            0           0           0  
      9.606399  0.000000  0.378121            0           0           0  
      8.005332  5.230803  4.852682            0           0           0  
     11.207465  5.230803  4.852682            0           0           0  
      8.005332  1.995682  1.617561            0           0           0  
     11.207465  1.995682  1.617561            0           0           0  
      6.404266  3.235121  6.092122            0           0           0  
      9.606399  3.235121  6.092122            0           0           0  
      6.404266  0.000000  2.857000            0           0           0  
      9.606399  0.000000  2.857000            0           0           0  
      8.005332  1.239440  4.852682            0           0           0  
     11.207465  1.239440  4.852682            0           0           0  
      8.005332  4.474561  1.617561            0           0           0  
     11.207465  4.474561  1.617561            0           0           0  
      6.595613  3.235121 10.003822            0           0           0  
      9.388794  3.235121  9.992969            0           0           0  
      6.413742  0.000000  6.849780            0           0           0  
      9.609207  0.000000  6.851389            0           0           0  
      8.011615  5.262151 11.421553            0           0           0  
     11.206370  5.284284 11.349977            0           0           0  
      8.009393  1.991352  8.005682            0           0           0  
     11.203256  1.998549  8.136044            0           0           0  
      6.656244  3.235121 12.579726            0           0           0  
      9.391666  3.235121 12.576234            0           0           0  
      6.399112  0.000000  9.317519            0           0           0  
      9.595887  0.000000  9.373515            0           0           0  
      8.011615  1.208092 11.421553            0           0           0  
     11.206370  1.185959 11.349977            0           0           0  
      8.009393  4.478891  8.005682            0           0           0  
     11.203256  4.471694  8.136044            0           0           0  
      9.613079  0.000000 13.359227    -0.001495    0.999999   -0.000253  
 
   3 f  =    5.125905 THz    32.207011 2PiTHz  170.981782 cm-1    21.199047 meV
             X         Y         Z           dx          dy          dz
      1.601066  3.235121  4.852682            0           0           0  
      4.803199  3.235121  4.852682            0           0           0  
      1.601066  0.000000  1.617561            0           0           0  
      4.803199  0.000000  1.617561            0           0           0  
      0.000000  3.235121  1.617561            0           0           0  
      3.202133  3.235121  1.617561            0           0           0  
      0.000000  0.000000  4.852682            0           0           0  
      3.202133  0.000000  4.852682            0           0           0  
      1.627689  3.235121 11.444592            0           0           0  
      1.594113  0.000000  8.074549            0           0           0  
      4.807474  0.000000  8.074885            0           0           0  
      0.021061  3.235121  8.121186            0           0           0  
      3.186452  3.235121  8.111748            0           0           0  
     12.765789  0.000000 11.267198            0           0           0  
      3.287346  0.000000 11.268101            0           0           0  
      0.000000  3.235121  3.613243            0           0           0  
      3.202133  3.235121  3.613243            0           0           0  
      0.000000  0.000000  0.378121            0           0           0  
      3.202133  0.000000  0.378121            0           0           0  
      1.601066  5.230803  4.852682            0           0           0  
      4.803199  5.230803  4.852682            0           0           0  
      1.601066  1.995682  1.617561            0           0           0  
      4.803199  1.995682  1.617561            0           0           0  
      0.000000  3.235121  6.092122            0           0           0  
      3.202133  3.235121  6.092122            0           0           0  
      0.000000  0.000000  2.857000            0           0           0  
      3.202133  0.000000  2.857000            0           0           0  
      1.601066  1.239440  4.852682            0           0           0  
      4.803199  1.239440  4.852682            0           0           0  
      1.601066  4.474561  1.617561            0           0           0  
      4.803199  4.474561  1.617561            0           0           0  
      0.212922  3.235121  9.999335            0           0           0  
      3.015630  3.235121  9.996464            0           0           0  
     12.794019  0.000000  6.849885            0           0           0  
      3.202748  0.000000  6.842586            0           0           0  
      1.627143  5.271314 11.452055            0           0           0  
      4.818734  5.300166 11.451134            0           0           0  
      1.600592  1.995671  8.001826            0           0           0  
      4.810597  2.000742  8.118460            0           0           0  
      0.240898  3.235121 12.564340            0           0           0  
      2.991279  3.235121 12.589306            0           0           0  
     12.799550  0.000000  9.321223            0           0           0  
      3.203249  0.000000  9.316658            0           0           0  
      1.627143  1.198929 11.452055            0           0           0  
      4.818734  1.170077 11.451134            0           0           0  
      1.600592  4.474572  8.001826            0           0           0  
      4.810597  4.469501  8.118460            0           0           0  
      8.005332  3.235121  4.852682            0           0           0  
     11.207465  3.235121  4.852682            0           0           0  
      8.005332  0.000000  1.617561            0           0           0  
     11.207465  0.000000  1.617561            0           0           0  
      6.404266  3.235121  1.617561            0           0           0  
      9.606399  3.235121  1.617561            0           0           0  
      6.404266  0.000000  4.852682            0           0           0  
      9.606399  0.000000  4.852682            0           0           0  
      8.017178  3.235121 11.432939            0           0           0  
      8.028359  0.000000  8.101281            0           0           0  
     11.181780  0.000000  8.113815            0           0           0  
      6.427737  3.235121  8.120782            0           0           0  
      9.588648  3.235121  8.115514            0           0           0  
      6.369091  0.000000 11.263630            0           0           0  
      9.703527  0.000000 11.596550            0           0           0  
      6.404266  3.235121  3.613243            0           0           0  
      9.606399  3.235121  3.613243            0           0           0  
      6.404266  0.000000  0.378121            0           0           0  
      9.606399  0.000000  0.378121            0           0           0  
      8.005332  5.230803  4.852682            0           0           0  
     11.207465  5.230803  4.852682            0           0           0  
      8.005332  1.995682  1.617561            0           0           0  
     11.207465  1.995682  1.617561            0           0           0  
      6.404266  3.235121  6.092122            0           0           0  
      9.606399  3.235121  6.092122            0           0           0  
      6.404266  0.000000  2.857000            0           0           0  
      9.606399  0.000000  2.857000            0           0           0  
      8.005332  1.239440  4.852682            0           0           0  
     11.207465  1.239440  4.852682            0           0           0  
      8.005332  4.474561  1.617561            0           0           0  
     11.207465  4.474561  1.617561            0           0           0  
      6.595613  3.235121 10.003822            0           0           0  
      9.388794  3.235121  9.992969            0           0           0  
      6.413742  0.000000  6.849780            0           0           0  
      9.609207  0.000000  6.851389            0           0           0  
      8.011615  5.262151 11.421553            0           0           0  
     11.206370  5.284284 11.349977            0           0           0  
      8.009393  1.991352  8.005682            0           0           0  
     11.203256  1.998549  8.136044            0           0           0  
      6.656244  3.235121 12.579726            0           0           0  
      9.391666  3.235121 12.576234            0           0           0  
      6.399112  0.000000  9.317519            0           0           0  
      9.595887  0.000000  9.373515            0           0           0  
      8.011615  1.208092 11.421553            0           0           0  
     11.206370  1.185959 11.349977            0           0           0  
      8.009393  4.478891  8.005682            0           0           0  
     11.203256  4.471694  8.136044            0           0           0  
      9.613079  0.000000 13.359227    -0.997185   -0.001510   -0.074966  
 
 Finite differences POTIM=  1.500000000000000E-002
  LATTYP: Found a simple orthorhombic cell.
 ALAT       =     6.4702430000
 B/A-ratio  =     1.9796060210
 C/A-ratio  =     4.0000000000
  
  Lattice vectors:
  
 A1 = (   0.0000000000,  -6.4702430000,   0.0000000000)
 A2 = ( -12.8085320000,   0.0000000000,   0.0000000000)
 A3 = (   0.0000000000,   0.0000000000, -25.8809720000)


Analysis of symmetry for initial positions (statically):
=====================================================================
 Subroutine PRICEL returns:
 Original cell was already a primitive cell.
 

 Routine SETGRP: Setting up the symmetry group for a 
 simple orthorhombic supercell.


 Subroutine GETGRP returns: Found  2 space group operations
 (whereof  2 operations were pure point group operations)
 out of a pool of  8 trial point group operations.


The static configuration has the point symmetry C_1h.


Analysis of symmetry for dynamics (positions and initial velocities):
=====================================================================
 Subroutine PRICEL returns:
 Original cell was already a primitive cell.
 

 Routine SETGRP: Setting up the symmetry group for a 
 simple orthorhombic supercell.


 Subroutine GETGRP returns: Found  2 space group operations
 (whereof  2 operations were pure point group operations)
 out of a pool of  8 trial point group operations.


The dynamic configuration has the point symmetry C_1h.


Analysis of constrained symmetry for selective dynamics:
=====================================================================
 Subroutine PRICEL returns:
 Original cell was already a primitive cell.
 

 Routine SETGRP: Setting up the symmetry group for a 
 simple orthorhombic supercell.


 Subroutine GETGRP returns: Found  2 space group operations
 (whereof  2 operations were pure point group operations)
 out of a pool of  8 trial point group operations.


The constrained configuration has the point symmetry C_1h.


Analysis of structural, dynamic, and magnetic symmetry:
=====================================================================
 Subroutine PRICEL returns:
 Original cell was already a primitive cell.
 

 Routine SETGRP: Setting up the symmetry group for a 
 simple orthorhombic supercell.


 Subroutine GETGRP returns: Found  2 space group operations
 (whereof  2 operations were pure point group operations)
 out of a pool of  8 trial point group operations.


The magnetic configuration has the point symmetry C_1h.


 Subroutine INISYM returns: Found  2 space group operations
 (whereof  2 operations are pure point group operations),
 and found     1 'primitive' translations

 
 KPOINTS: Automatic mesh                          

Automatic generation of k-mesh.
Space group operators:
 irot       det(A)        alpha          n_x          n_y          n_z        tau_x        tau_y        tau_z
    1     1.000000     0.000001     1.000000     0.000000     0.000000     0.000000     0.000000     0.000000
    2    -1.000000   180.000000     0.000000     1.000000     0.000000     0.000000     0.000000     0.000000
 
 Subroutine IBZKPT returns following result:
 ===========================================
 
 Found      4 irreducible k-points:
 
 Following reciprocal coordinates:
            Coordinates               Weight
  0.000000  0.000000  0.000000      1.000000
  0.333333  0.000000  0.000000      2.000000
  0.000000  0.333333  0.000000      2.000000
  0.333333  0.333333  0.000000      4.000000
 
 Following cartesian coordinates:
            Coordinates               Weight
  0.000000  0.000000  0.000000      1.000000
  0.026024  0.000000  0.000000      2.000000
  0.000000  0.051518  0.000000      2.000000
  0.026024  0.051518  0.000000      4.000000
 
     LOOP+:  cpu time  293.7757: real time  294.7540
    4ORBIT:  cpu time    0.0000: real time    0.0000

 total amount of memory used by VASP MPI-rank0   171216. kBytes
=======================================================================

   base      :      30000. kBytes
   nonlr-proj:      18719. kBytes
   fftplans  :       4196. kBytes
   grid      :      37119. kBytes
   one-center:       2954. kBytes
   wavefun   :      78228. kBytes
 
  
  
 General timing and accounting informations for this job:
 ========================================================
  
                  Total CPU time used (sec):     2320.103
                            User time (sec):     2268.672
                          System time (sec):       51.431
                         Elapsed time (sec):     2329.840
  
                   Maximum memory used (kb):      416396.
                   Average memory used (kb):           0.
  
                          Minor page faults:      1551553
                          Major page faults:          195
                 Voluntary context switches:         5987
