<?xml version="1.0" encoding="ISO-8859-1"?>
<modeling>
 <generator>
  <i name="program" type="string">vasp </i>
  <i name="version" type="string">5.4.4.18Apr17-6-g9f103f2a35  </i>
  <i name="subversion" type="string">(build Feb 25 2019 10:51:38) complex            parallel </i>
  <i name="platform" type="string">LinuxIFC </i>
  <i name="date" type="string">2023 04 12 </i>
  <i name="time" type="string">10:37:30 </i>
 </generator>
 <incar>
  <i type="string" name="PREC">normal</i>
  <i type="string" name="ALGO"> Fast</i>
  <i type="int" name="ISPIN">     2</i>
  <i type="int" name="MAXMIX">    60</i>
  <i type="int" name="ICHARG">     2</i>
  <i type="int" name="NELM">    60</i>
  <i type="int" name="NELMIN">     4</i>
  <i type="int" name="IBRION">     5</i>
  <i type="int" name="NFREE">     2</i>
  <i name="EDIFF">      0.00000100</i>
  <i name="EDIFFG">     -0.05000000</i>
  <i type="int" name="NSW">   500</i>
  <i type="int" name="ISIF">     2</i>
  <i name="ENCUT">    500.00000000</i>
  <v name="MAGMOM">      0.60000000      0.60000000      0.60000000      0.60000000      0.60000000      0.60000000      0.60000000      0.60000000      0.60000000      0.60000000      0.60000000      0.60000000      0.60000000      0.60000000      0.60000000      0.60000000      0.60000000      0.60000000      0.60000000      0.60000000
      0.60000000      0.60000000      0.60000000      0.60000000      0.60000000      0.60000000      0.60000000      0.60000000      0.60000000      0.60000000      0.60000000      0.60000000      0.60000000      0.60000000      0.60000000      0.60000000      0.60000000      0.60000000      0.60000000      0.60000000
      0.60000000      0.60000000      0.60000000      0.60000000      0.60000000      0.60000000      0.60000000      0.60000000      0.60000000      0.60000000      0.60000000      0.60000000      0.60000000      0.60000000      0.60000000      0.60000000      0.60000000      0.60000000      0.60000000      0.60000000
      0.60000000      0.60000000      0.60000000      0.60000000      0.60000000      0.60000000      0.60000000      0.60000000      0.60000000      0.60000000      0.60000000      0.60000000      0.60000000      0.60000000      0.60000000      0.60000000      0.60000000      0.60000000      0.60000000      0.60000000
      0.60000000      0.60000000      0.60000000      0.60000000      0.60000000      0.60000000      0.60000000      0.60000000      0.60000000      0.60000000      0.60000000      0.60000000      0.60000000      0.60000000      0.60000000</v>
  <i type="string" name="LREAL"> Auto</i>
  <i type="int" name="ISMEAR">     0</i>
  <i name="SIGMA">      0.05000000</i>
  <i type="logical" name="LWAVE"> F  </i>
  <i type="logical" name="LCHARG"> F  </i>
  <i type="logical" name="LVHAR"> T  </i>
  <v type="int" name="KPOINT_BSE">    -1     0     0     0</v>
  <i type="int" name="NELM">    60</i>
  <i type="string" name="GGA"> Rp</i>
 </incar>
 <structure name="primitive_cell" >
  <crystal>
   <varray name="basis" >
    <v>      12.80853200       0.00000000       0.00000000 </v>
    <v>       0.00000000       6.47024300       0.00000000 </v>
    <v>       0.00000000       0.00000000      25.88097200 </v>
   </varray>
   <i name="volume">   2144.86781344 </i>
   <varray name="rec_basis" >
    <v>       0.07807296       0.00000000       0.00000000 </v>
    <v>       0.00000000       0.15455370       0.00000000 </v>
    <v>       0.00000000       0.00000000       0.03863843 </v>
   </varray>
  </crystal>
  <varray name="positions" >
   <v>       0.12500000      -0.50000000       0.18750000 </v>
   <v>       0.12500000      -0.19156000       0.18750000 </v>
   <v>       0.12500000       0.19156000       0.18750000 </v>
   <v>       0.00000000      -0.50000000       0.13961000 </v>
   <v>       0.25000000      -0.50000000       0.13961000 </v>
   <v>       0.00000000      -0.50000000       0.23539000 </v>
   <v>       0.25000000      -0.50000000       0.23539000 </v>
   <v>       0.37500000      -0.50000000       0.18750000 </v>
   <v>      -0.12500000      -0.50000000       0.18750000 </v>
   <v>       0.12496298       0.30843831       0.30917795 </v>
   <v>       0.12496298      -0.30843831       0.30917795 </v>
   <v>       0.12500000       0.30844000       0.06250000 </v>
   <v>       0.12500000      -0.30844000       0.06250000 </v>
   <v>       0.00000000      -0.50000000       0.06250000 </v>
   <v>       0.25000000      -0.50000000       0.06250000 </v>
   <v>       0.00000000       0.00000000       0.18750000 </v>
   <v>       0.25000000       0.00000000       0.18750000 </v>
   <v>       0.24877575      -0.50000000       0.31342515 </v>
   <v>       0.00164430      -0.50000000       0.31378983 </v>
   <v>       0.37500000      -0.19156000       0.18750000 </v>
   <v>       0.37500000       0.19156000       0.18750000 </v>
   <v>      -0.12500000      -0.19156000       0.18750000 </v>
   <v>      -0.12500000       0.19156000       0.18750000 </v>
   <v>       0.25004800       0.00000000       0.26438676 </v>
   <v>       0.00000000       0.00000000       0.11039000 </v>
   <v>       0.25000000       0.00000000       0.11039000 </v>
   <v>      -0.00113310       0.00000000       0.26466879 </v>
   <v>       0.12445708       0.00000000       0.31198785 </v>
   <v>       0.12500000       0.00000000       0.06250000 </v>
   <v>       0.37500000       0.30844000       0.06250000 </v>
   <v>       0.37500000      -0.30844000       0.06250000 </v>
   <v>      -0.12500000       0.30844000       0.06250000 </v>
   <v>      -0.12500000      -0.30844000       0.06250000 </v>
   <v>       0.37557751       0.30922204       0.31368450 </v>
   <v>       0.37557751      -0.30922204       0.31368450 </v>
   <v>      -0.12532868       0.30888321       0.31436392 </v>
   <v>      -0.12532868      -0.30888321       0.31436392 </v>
   <v>      -0.50000000      -0.50000000       0.13961000 </v>
   <v>      -0.25000000      -0.50000000       0.13961000 </v>
   <v>      -0.50000000      -0.50000000       0.23539000 </v>
   <v>      -0.25000000      -0.50000000       0.23539000 </v>
   <v>       0.01662344      -0.50000000       0.38635857 </v>
   <v>       0.23543919      -0.50000000       0.38624761 </v>
   <v>       0.37533373       0.00000000       0.31200086 </v>
   <v>       0.37500000       0.00000000       0.06250000 </v>
   <v>      -0.12500000       0.00000000       0.06250000 </v>
   <v>      -0.12700534       0.00000000       0.31350503 </v>
   <v>       0.25008712       0.00000000       0.35998099 </v>
   <v>      -0.00070123       0.00000000       0.36015736 </v>
   <v>       0.00000000       0.00000000       0.01461000 </v>
   <v>       0.25000000       0.00000000       0.01461000 </v>
   <v>      -0.50000000      -0.50000000       0.06250000 </v>
   <v>      -0.25000000      -0.50000000       0.06250000 </v>
   <v>      -0.50000000       0.00000000       0.18750000 </v>
   <v>      -0.25000000       0.00000000       0.18750000 </v>
   <v>      -0.25138590      -0.50000000       0.31357067 </v>
   <v>      -0.49816751      -0.50000000       0.31377422 </v>
   <v>      -0.24978074       0.00000000       0.26472688 </v>
   <v>      -0.50000000       0.00000000       0.11039000 </v>
   <v>      -0.25000000       0.00000000       0.11039000 </v>
   <v>      -0.49926021       0.00000000       0.26466470 </v>
   <v>      -0.37500000      -0.50000000       0.18750000 </v>
   <v>       0.12707847      -0.50000000       0.44220101 </v>
   <v>      -0.37500000      -0.19156000       0.18750000 </v>
   <v>      -0.37500000       0.19156000       0.18750000 </v>
   <v>       0.12703588      -0.18529887       0.44248937 </v>
   <v>       0.12703588       0.18529887       0.44248937 </v>
   <v>      -0.48506094      -0.50000000       0.38653191 </v>
   <v>      -0.26698906      -0.50000000       0.38611259 </v>
   <v>      -0.37468300       0.30777083       0.30932694 </v>
   <v>      -0.37468300      -0.30777083       0.30932694 </v>
   <v>      -0.37500000       0.30844000       0.06250000 </v>
   <v>      -0.37500000      -0.30844000       0.06250000 </v>
   <v>       0.49959763       0.00000000       0.36001425 </v>
   <v>      -0.50000000       0.00000000       0.01461000 </v>
   <v>      -0.25000000       0.00000000       0.01461000 </v>
   <v>      -0.25082067       0.00000000       0.36217786 </v>
   <v>      -0.00333704       0.00000000       0.43534678 </v>
   <v>       0.25665283       0.00000000       0.43538169 </v>
   <v>      -0.12508556      -0.18329431       0.43854525 </v>
   <v>      -0.12508556       0.18329431       0.43854525 </v>
   <v>       0.37621279      -0.18083967       0.44245378 </v>
   <v>       0.37621279       0.18083967       0.44245378 </v>
   <v>       0.01880762      -0.50000000       0.48546631 </v>
   <v>      -0.37320228       0.00000000       0.31302075 </v>
   <v>       0.23353803      -0.50000000       0.48643094 </v>
   <v>      -0.37500000       0.00000000       0.06250000 </v>
   <v>       0.49725382       0.00000000       0.43520893 </v>
   <v>      -0.24241693       0.00000000       0.44807243 </v>
   <v>      -0.37407518      -0.50000000       0.44175077 </v>
   <v>      -0.26676482      -0.50000000       0.48592587 </v>
   <v>      -0.48032734      -0.50000000       0.48606080 </v>
   <v>      -0.37450950      -0.18671510       0.44131082 </v>
   <v>      -0.37450950       0.18671510       0.44131082 </v>
   <v>      -0.24947848       0.00000000      -0.48382051 </v>
  </varray>
 </structure>
 <varray name="primitive_index" >
  <v type="int" >        1 </v>
  <v type="int" >       20 </v>
  <v type="int" >       28 </v>
  <v type="int" >       16 </v>
  <v type="int" >       17 </v>
  <v type="int" >       24 </v>
  <v type="int" >       25 </v>
  <v type="int" >        2 </v>
  <v type="int" >       49 </v>
  <v type="int" >       38 </v>
  <v type="int" >       46 </v>
  <v type="int" >       22 </v>
  <v type="int" >       30 </v>
  <v type="int" >        5 </v>
  <v type="int" >        6 </v>
  <v type="int" >        7 </v>
  <v type="int" >        8 </v>
  <v type="int" >       13 </v>
  <v type="int" >       12 </v>
  <v type="int" >       21 </v>
  <v type="int" >       29 </v>
  <v type="int" >       68 </v>
  <v type="int" >       76 </v>
  <v type="int" >       35 </v>
  <v type="int" >       26 </v>
  <v type="int" >       27 </v>
  <v type="int" >       34 </v>
  <v type="int" >       10 </v>
  <v type="int" >        3 </v>
  <v type="int" >       23 </v>
  <v type="int" >       31 </v>
  <v type="int" >       70 </v>
  <v type="int" >       78 </v>
  <v type="int" >       39 </v>
  <v type="int" >       47 </v>
  <v type="int" >       86 </v>
  <v type="int" >       94 </v>
  <v type="int" >       63 </v>
  <v type="int" >       64 </v>
  <v type="int" >       71 </v>
  <v type="int" >       72 </v>
  <v type="int" >       32 </v>
  <v type="int" >       33 </v>
  <v type="int" >       11 </v>
  <v type="int" >        4 </v>
  <v type="int" >       51 </v>
  <v type="int" >       58 </v>
  <v type="int" >       43 </v>
  <v type="int" >       42 </v>
  <v type="int" >       18 </v>
  <v type="int" >       19 </v>
  <v type="int" >       52 </v>
  <v type="int" >       53 </v>
  <v type="int" >       54 </v>
  <v type="int" >       55 </v>
  <v type="int" >       60 </v>
  <v type="int" >       59 </v>
  <v type="int" >       82 </v>
  <v type="int" >       73 </v>
  <v type="int" >       74 </v>
  <v type="int" >       81 </v>
  <v type="int" >       48 </v>
  <v type="int" >        9 </v>
  <v type="int" >       67 </v>
  <v type="int" >       75 </v>
  <v type="int" >       36 </v>
  <v type="int" >       44 </v>
  <v type="int" >       79 </v>
  <v type="int" >       80 </v>
  <v type="int" >       85 </v>
  <v type="int" >       93 </v>
  <v type="int" >       69 </v>
  <v type="int" >       77 </v>
  <v type="int" >       89 </v>
  <v type="int" >       65 </v>
  <v type="int" >       66 </v>
  <v type="int" >       90 </v>
  <v type="int" >       14 </v>
  <v type="int" >       15 </v>
  <v type="int" >       84 </v>
  <v type="int" >       92 </v>
  <v type="int" >       37 </v>
  <v type="int" >       45 </v>
  <v type="int" >       40 </v>
  <v type="int" >       57 </v>
  <v type="int" >       41 </v>
  <v type="int" >       50 </v>
  <v type="int" >       61 </v>
  <v type="int" >       62 </v>
  <v type="int" >       56 </v>
  <v type="int" >       88 </v>
  <v type="int" >       87 </v>
  <v type="int" >       83 </v>
  <v type="int" >       91 </v>
  <v type="int" >       95 </v>
 </varray>
 <kpoints>
  <generation param="Gamma">
   <v type="int" name="divisions">       3        3        1 </v>
   <v name="usershift">      0.00000000       0.00000000       0.00000000 </v>
   <v name="genvec1">      0.33333333       0.00000000       0.00000000 </v>
   <v name="genvec2">      0.00000000       0.33333333       0.00000000 </v>
   <v name="genvec3">      0.00000000       0.00000000       1.00000000 </v>
   <v name="shift">      0.00000000       0.00000000       0.00000000 </v>
  </generation>
  <varray name="kpointlist" >
   <v>       0.00000000       0.00000000       0.00000000 </v>
   <v>       0.33333333       0.00000000       0.00000000 </v>
   <v>       0.00000000       0.33333333       0.00000000 </v>
   <v>       0.33333333       0.33333333       0.00000000 </v>
  </varray>
  <varray name="weights" >
   <v>       0.11111111 </v>
   <v>       0.22222222 </v>
   <v>       0.22222222 </v>
   <v>       0.44444444 </v>
  </varray>
 </kpoints>
 <parameters>
  <separator name="general" >
   <i type="string" name="SYSTEM">unknown system</i>
   <i type="logical" name="LCOMPAT"> F  </i>
  </separator>
  <separator name="electronic" >
   <i type="string" name="PREC">normal</i>
   <i name="ENMAX">    500.00000000</i>
   <i name="ENAUG">    605.39200000</i>
   <i name="EDIFF">      0.00000100</i>
   <i type="int" name="IALGO">    68</i>
   <i type="int" name="IWAVPR">    11</i>
   <i type="int" name="NBANDS">   440</i>
   <i name="NELECT">    660.00000000</i>
   <i type="int" name="TURBO">     0</i>
   <i type="int" name="IRESTART">     0</i>
   <i type="int" name="NREBOOT">     0</i>
   <i type="int" name="NMIN">     0</i>
   <i name="EREF">      0.00000000</i>
   <separator name="electronic smearing" >
    <i type="int" name="ISMEAR">     0</i>
    <i name="SIGMA">      0.05000000</i>
    <i name="KSPACING">      0.50000000</i>
    <i type="logical" name="KGAMMA"> T  </i>
   </separator>
   <separator name="electronic projectors" >
    <i type="logical" name="LREAL"> T  </i>
    <v name="ROPT">     -0.00050000     -0.00050000     -0.00050000     -0.00050000</v>
    <i type="int" name="LMAXPAW">  -100</i>
    <i type="int" name="LMAXMIX">     2</i>
    <i type="logical" name="NLSPLINE"> F  </i>
   </separator>
   <separator name="electronic startup" >
    <i type="int" name="ISTART">     0</i>
    <i type="int" name="ICHARG">     2</i>
    <i type="int" name="INIWAV">     1</i>
   </separator>
   <separator name="electronic spin" >
    <i type="int" name="ISPIN">     2</i>
    <i type="logical" name="LNONCOLLINEAR"> F  </i>
    <v name="MAGMOM">      0.60000000      0.60000000      0.60000000      0.60000000      0.60000000      0.60000000      0.60000000      0.60000000      0.60000000      0.60000000      0.60000000      0.60000000      0.60000000      0.60000000      0.60000000      0.60000000      0.60000000      0.60000000      0.60000000      0.60000000
      0.60000000      0.60000000      0.60000000      0.60000000      0.60000000      0.60000000      0.60000000      0.60000000      0.60000000      0.60000000      0.60000000      0.60000000      0.60000000      0.60000000      0.60000000      0.60000000      0.60000000      0.60000000      0.60000000      0.60000000
      0.60000000      0.60000000      0.60000000      0.60000000      0.60000000      0.60000000      0.60000000      0.60000000      0.60000000      0.60000000      0.60000000      0.60000000      0.60000000      0.60000000      0.60000000      0.60000000      0.60000000      0.60000000      0.60000000      0.60000000
      0.60000000      0.60000000      0.60000000      0.60000000      0.60000000      0.60000000      0.60000000      0.60000000      0.60000000      0.60000000      0.60000000      0.60000000      0.60000000      0.60000000      0.60000000      0.60000000      0.60000000      0.60000000      0.60000000      0.60000000
      0.60000000      0.60000000      0.60000000      0.60000000      0.60000000      0.60000000      0.60000000      0.60000000      0.60000000      0.60000000      0.60000000      0.60000000      0.60000000      0.60000000      0.60000000</v>
    <i name="NUPDOWN">     -1.00000000</i>
    <i type="logical" name="LSORBIT"> F  </i>
    <v name="SAXIS">      0.00000000      0.00000000      1.00000000</v>
    <i type="logical" name="LSPIRAL"> F  </i>
    <v name="QSPIRAL">      0.00000000      0.00000000      0.00000000</v>
    <i type="logical" name="LZEROZ"> F  </i>
   </separator>
   <separator name="electronic exchange-correlation" >
    <i type="logical" name="LASPH"> F  </i>
    <i type="logical" name="LMETAGGA"> F  </i>
   </separator>
   <separator name="electronic convergence" >
    <i type="int" name="NELM">    60</i>
    <i type="int" name="NELMDL">    -5</i>
    <i type="int" name="NELMIN">     4</i>
    <i name="ENINI">    500.00000000</i>
    <separator name="electronic convergence detail" >
     <i type="logical" name="LDIAG"> T  </i>
     <i type="logical" name="LSUBROT"> F  </i>
     <i name="WEIMIN">      0.00100000</i>
     <i name="EBREAK">      0.00000000</i>
     <i name="DEPER">      0.30000000</i>
     <i type="int" name="NRMM">     4</i>
     <i name="TIME">      0.40000000</i>
    </separator>
   </separator>
   <separator name="electronic mixer" >
    <i name="AMIX">      0.40000000</i>
    <i name="BMIX">      1.00000000</i>
    <i name="AMIN">      0.10000000</i>
    <i name="AMIX_MAG">      1.60000000</i>
    <i name="BMIX_MAG">      1.00000000</i>
    <separator name="electronic mixer details" >
     <i type="int" name="IMIX">     4</i>
     <i type="logical" name="MIXFIRST"> F  </i>
     <i type="int" name="MAXMIX">    60</i>
     <i name="WC">    100.00000000</i>
     <i type="int" name="INIMIX">     1</i>
     <i type="int" name="MIXPRE">     1</i>
     <i type="int" name="MREMOVE">     5</i>
    </separator>
   </separator>
   <separator name="electronic dipolcorrection" >
    <i type="logical" name="LDIPOL"> F  </i>
    <i type="logical" name="LMONO"> F  </i>
    <i type="int" name="IDIPOL">     0</i>
    <i name="EPSILON">      1.00000000</i>
    <v name="DIPOL">   -100.00000000   -100.00000000   -100.00000000</v>
    <i name="EFIELD">      0.00000000</i>
   </separator>
  </separator>
  <separator name="grids" >
   <i type="int" name="NGX">    70</i>
   <i type="int" name="NGY">    36</i>
   <i type="int" name="NGZ">   144</i>
   <i type="int" name="NGXF">   140</i>
   <i type="int" name="NGYF">    72</i>
   <i type="int" name="NGZF">   288</i>
   <i type="logical" name="ADDGRID"> F  </i>
  </separator>
  <separator name="ionic" >
   <i type="int" name="NSW">  1177</i>
   <i type="int" name="IBRION">     5</i>
   <i type="int" name="MDALGO">     0</i>
   <i type="int" name="ISIF">     2</i>
   <i name="PSTRESS">      0.00000000</i>
   <i name="EDIFFG">     -0.05000000</i>
   <i type="int" name="NFREE">     2</i>
   <i name="POTIM">      0.50000000</i>
   <i name="SMASS">     -3.00000000</i>
   <i name="SCALEE">      1.00000000</i>
  </separator>
  <separator name="ionic md" >
   <i name="TEBEG">      0.00010000</i>
   <i name="TEEND">      0.00010000</i>
   <i type="int" name="NBLOCK">     1</i>
   <i type="int" name="KBLOCK">  1177</i>
   <i type="int" name="NPACO">   256</i>
   <i name="APACO">     16.00000000</i>
  </separator>
  <separator name="symmetry" >
   <i type="int" name="ISYM">     2</i>
   <i name="SYMPREC">      0.00001000</i>
  </separator>
  <separator name="dos" >
   <i type="int" name="LORBIT">     0</i>
   <v name="RWIGS">     -1.00000000     -1.00000000     -1.00000000     -1.00000000</v>
   <i type="int" name="NEDOS">   301</i>
   <i name="EMIN">     10.00000000</i>
   <i name="EMAX">    -10.00000000</i>
   <i name="EFERMI">      0.00000000</i>
  </separator>
  <separator name="writing" >
   <i type="int" name="NWRITE">     2</i>
   <i type="logical" name="LWAVE"> F  </i>
   <i type="logical" name="LDOWNSAMPLE"> F  </i>
   <i type="logical" name="LCHARG"> F  </i>
   <i type="logical" name="LPARD"> F  </i>
   <i type="logical" name="LVTOT"> F  </i>
   <i type="logical" name="LVHAR"> T  </i>
   <i type="logical" name="LELF"> F  </i>
   <i type="logical" name="LOPTICS"> F  </i>
   <v name="STM">      0.00000000      0.00000000      0.00000000      0.00000000      0.00000000      0.00000000      0.00000000</v>
  </separator>
  <separator name="performance" >
   <i type="int" name="NPAR">    40</i>
   <i type="int" name="NSIM">     4</i>
   <i type="int" name="NBLK">    -1</i>
   <i type="logical" name="LPLANE"> T  </i>
   <i type="logical" name="LSCALAPACK"> T  </i>
   <i type="logical" name="LSCAAWARE"> F  </i>
   <i type="logical" name="LSCALU"> F  </i>
   <i type="logical" name="LASYNC"> F  </i>
   <i type="logical" name="LORBITALREAL"> F  </i>
  </separator>
  <separator name="miscellaneous" >
   <i type="int" name="IDIOT">     3</i>
   <i type="int" name="ISPECIAL">     0</i>
   <i type="logical" name="LMUSIC"> F  </i>
   <v name="POMASS">    192.22000000     16.00000000    192.22000000     16.00000000</v>
   <v name="DARWINR">      0.00000000      0.00000000      0.00000000      0.00000000</v>
   <v name="DARWINV">      1.00000000      1.00000000      1.00000000      1.00000000</v>
   <i type="logical" name="LCORR"> T  </i>
  </separator>
  <i type="logical" name="GGA_COMPAT"> T  </i>
  <i type="logical" name="LBERRY"> F  </i>
  <i type="int" name="ICORELEVEL">     0</i>
  <i type="logical" name="LDAU"> F  </i>
  <i type="int" name="I_CONSTRAINED_M">     0</i>
  <separator name="electronic exchange-correlation" >
   <i type="string" name="GGA">RP</i>
   <i type="int" name="VOSKOWN">     0</i>
   <i type="logical" name="LHFCALC"> F  </i>
   <i type="string" name="PRECFOCK"></i>
   <i type="logical" name="LSYMGRAD"> F  </i>
   <i type="logical" name="LHFONE"> F  </i>
   <i type="logical" name="LRHFCALC"> F  </i>
   <i type="logical" name="LTHOMAS"> F  </i>
   <i type="logical" name="LMODELHF"> F  </i>
   <i name="ENCUT4O">     -1.00000000</i>
   <i type="int" name="EXXOEP">     0</i>
   <i type="int" name="FOURORBIT">     0</i>
   <i name="AEXX">      0.00000000</i>
   <i name="HFALPHA">      0.00000000</i>
   <i name="MCALPHA">      0.00000000</i>
   <i name="ALDAX">      1.00000000</i>
   <i name="AGGAX">      1.00000000</i>
   <i name="ALDAC">      1.00000000</i>
   <i name="AGGAC">      1.00000000</i>
   <i type="int" name="NKREDX">     1</i>
   <i type="int" name="NKREDY">     1</i>
   <i type="int" name="NKREDZ">     1</i>
   <i type="logical" name="SHIFTRED"> F  </i>
   <i type="logical" name="ODDONLY"> F  </i>
   <i type="logical" name="EVENONLY"> F  </i>
   <i type="int" name="LMAXFOCK">     0</i>
   <i type="int" name="NMAXFOCKAE">     0</i>
   <i type="logical" name="LFOCKAEDFT"> F  </i>
   <i name="HFSCREEN">      0.00000000</i>
   <i name="HFSCREENC">      0.00000000</i>
   <i type="int" name="NBANDSGWLOW">     0</i>
  </separator>
  <separator name="vdW DFT" >
   <i type="logical" name="LUSE_VDW"> F  </i>
   <i name="Zab_VDW">     -0.84910000</i>
   <i name="PARAM1">      0.12340000</i>
   <i name="PARAM2">      1.00000000</i>
   <i name="PARAM3">      0.00000000</i>
  </separator>
  <separator name="model GW" >
   <i type="int" name="MODEL_GW">     0</i>
   <i name="MODEL_EPS0">     13.54653356</i>
   <i name="MODEL_ALPHA">      1.00000000</i>
  </separator>
  <separator name="linear response parameters" >
   <i type="logical" name="LEPSILON"> F  </i>
   <i type="logical" name="LRPA"> F  </i>
   <i type="logical" name="LNABLA"> F  </i>
   <i type="logical" name="LVEL"> F  </i>
   <i type="int" name="KINTER">     0</i>
   <i name="CSHIFT">      0.10000000</i>
   <i name="OMEGAMAX">     -1.00000000</i>
   <i name="DEG_THRESHOLD">      0.00200000</i>
   <i name="RTIME">     -0.10000000</i>
   <i name="WPLASMAI">      0.00000000</i>
   <v name="DFIELD">      0.00000000      0.00000000      0.00000000</v>
   <v name="WPLASMA">      0.00000000      0.00000000      0.00000000      0.00000000      0.00000000      0.00000000      0.00000000      0.00000000      0.00000000</v>
  </separator>
  <separator name="orbital magnetization" >
   <i type="logical" name="NUCIND"> F  </i>
   <v name="MAGPOS">      0.00000000      0.00000000      0.00000000</v>
   <i type="logical" name="LNICSALL"> T  </i>
   <i type="logical" name="ORBITALMAG"> F  </i>
   <i type="logical" name="LMAGBLOCH"> F  </i>
   <i type="logical" name="LCHIMAG"> F  </i>
   <i type="logical" name="LGAUGE"> T  </i>
   <i type="int" name="MAGATOM">     0</i>
   <v name="MAGDIPOL">      0.00000000      0.00000000      0.00000000</v>
   <v name="AVECCONST">      0.00000000      0.00000000      0.00000000</v>
  </separator>
  <separator name="response functions" >
   <i type="logical" name="LADDER"> F  </i>
   <i type="logical" name="LRPAFORCE"> F  </i>
   <i type="logical" name="LFXC"> F  </i>
   <i type="logical" name="LHARTREE"> T  </i>
   <i type="int" name="IBSE">     0</i>
   <v type="int" name="KPOINT">    -1     0     0     0</v>
   <i type="logical" name="LTCTE"> F  </i>
   <i type="logical" name="LTETE"> F  </i>
   <i type="logical" name="LTRIPLET"> F  </i>
   <i type="logical" name="LFXCEPS"> F  </i>
   <i type="logical" name="LFXHEG"> F  </i>
   <i type="int" name="NATURALO">     2</i>
   <i type="logical" name="L2ORDER"> F  </i>
   <i type="logical" name="LMP2LT"> F  </i>
   <i type="logical" name="LUSEW"> F  </i>
   <i name="ENCUTGW">     -2.00000000</i>
   <i name="ENCUTGWSOFT">     -2.00000000</i>
   <i name="ENCUTLF">     -1.00000000</i>
   <i type="int" name="LMAXMP2">    -1</i>
   <i name="SCISSOR">      0.00000000</i>
   <i type="int" name="NOMEGA">     0</i>
   <i type="int" name="NOMEGAR">     0</i>
   <i type="int" name="NBANDSGW">    -1</i>
   <i type="int" name="NBANDSO">    -1</i>
   <i type="int" name="NBANDSV">    -1</i>
   <i type="int" name="NELM">    60</i>
   <i type="int" name="NELMHF">     1</i>
   <i type="int" name="DIM">     3</i>
   <i type="int" name="ANTIRES">     0</i>
   <i name="OMEGAMAX">    -30.00000000</i>
   <i name="OMEGAMIN">    -30.00000000</i>
   <i name="OMEGATL">   -200.00000000</i>
   <i type="int" name="OMEGAGRID">   140</i>
   <i name="CSHIFT">     -0.10000000</i>
   <i type="logical" name="SELFENERGY"> F  </i>
   <i type="logical" name="LSPECTRAL"> F  </i>
   <i type="logical" name="LSPECTRALGW"> F  </i>
   <i type="logical" name="LSINGLES"> F  </i>
   <i type="logical" name="LFERMIGW"> F  </i>
   <i type="logical" name="ODDONLYGW"> F  </i>
   <i type="logical" name="EVENONLYGW"> F  </i>
   <i type="int" name="NKREDLFX">     1</i>
   <i type="int" name="NKREDLFY">     1</i>
   <i type="int" name="NKREDLFZ">     1</i>
   <i type="int" name="MAXMEM">  2800</i>
   <i type="int" name="TELESCOPE">     0</i>
   <i type="int" name="TAUPAR">     1</i>
   <i type="int" name="OMEGAPAR">    -1</i>
   <i name="LAMBDA">      1.00000000</i>
  </separator>
  <separator name="External order field" >
   <i name="OFIELD_KAPPA">      0.00000000</i>
   <v name="OFIELD_K">      0.00000000      0.00000000      0.00000000</v>
   <i name="OFIELD_Q6_NEAR">      0.00000000</i>
   <i name="OFIELD_Q6_FAR">      0.00000000</i>
   <i name="OFIELD_A">      0.00000000</i>
  </separator>
  <separator name="solvation model" >
   <i type="logical" name="LSOL"> F  </i>
  </separator>
 </parameters>
 <atominfo>
  <atoms>      95 </atoms>
  <types>       4 </types>
  <array name="atoms" >
   <dimension dim="1">ion</dimension>
   <field type="string">element</field>
   <field type="int">atomtype</field>
   <set>
    <rc><c>Ir</c><c>   1</c></rc>
    <rc><c>Ir</c><c>   1</c></rc>
    <rc><c>Ir</c><c>   1</c></rc>
    <rc><c>Ir</c><c>   1</c></rc>
    <rc><c>Ir</c><c>   1</c></rc>
    <rc><c>Ir</c><c>   1</c></rc>
    <rc><c>Ir</c><c>   1</c></rc>
    <rc><c>Ir</c><c>   1</c></rc>
    <rc><c>Ir</c><c>   1</c></rc>
    <rc><c>Ir</c><c>   1</c></rc>
    <rc><c>Ir</c><c>   1</c></rc>
    <rc><c>Ir</c><c>   1</c></rc>
    <rc><c>Ir</c><c>   1</c></rc>
    <rc><c>Ir</c><c>   1</c></rc>
    <rc><c>Ir</c><c>   1</c></rc>
    <rc><c>O </c><c>   2</c></rc>
    <rc><c>O </c><c>   2</c></rc>
    <rc><c>O </c><c>   2</c></rc>
    <rc><c>O </c><c>   2</c></rc>
    <rc><c>O </c><c>   2</c></rc>
    <rc><c>O </c><c>   2</c></rc>
    <rc><c>O </c><c>   2</c></rc>
    <rc><c>O </c><c>   2</c></rc>
    <rc><c>O </c><c>   2</c></rc>
    <rc><c>O </c><c>   2</c></rc>
    <rc><c>O </c><c>   2</c></rc>
    <rc><c>O </c><c>   2</c></rc>
    <rc><c>O </c><c>   2</c></rc>
    <rc><c>O </c><c>   2</c></rc>
    <rc><c>O </c><c>   2</c></rc>
    <rc><c>O </c><c>   2</c></rc>
    <rc><c>O </c><c>   2</c></rc>
    <rc><c>O </c><c>   2</c></rc>
    <rc><c>O </c><c>   2</c></rc>
    <rc><c>O </c><c>   2</c></rc>
    <rc><c>O </c><c>   2</c></rc>
    <rc><c>O </c><c>   2</c></rc>
    <rc><c>O </c><c>   2</c></rc>
    <rc><c>O </c><c>   2</c></rc>
    <rc><c>O </c><c>   2</c></rc>
    <rc><c>O </c><c>   2</c></rc>
    <rc><c>O </c><c>   2</c></rc>
    <rc><c>O </c><c>   2</c></rc>
    <rc><c>O </c><c>   2</c></rc>
    <rc><c>O </c><c>   2</c></rc>
    <rc><c>O </c><c>   2</c></rc>
    <rc><c>O </c><c>   2</c></rc>
    <rc><c>Ir</c><c>   3</c></rc>
    <rc><c>Ir</c><c>   3</c></rc>
    <rc><c>Ir</c><c>   3</c></rc>
    <rc><c>Ir</c><c>   3</c></rc>
    <rc><c>Ir</c><c>   3</c></rc>
    <rc><c>Ir</c><c>   3</c></rc>
    <rc><c>Ir</c><c>   3</c></rc>
    <rc><c>Ir</c><c>   3</c></rc>
    <rc><c>Ir</c><c>   3</c></rc>
    <rc><c>Ir</c><c>   3</c></rc>
    <rc><c>Ir</c><c>   3</c></rc>
    <rc><c>Ir</c><c>   3</c></rc>
    <rc><c>Ir</c><c>   3</c></rc>
    <rc><c>Ir</c><c>   3</c></rc>
    <rc><c>Ir</c><c>   3</c></rc>
    <rc><c>O </c><c>   4</c></rc>
    <rc><c>O </c><c>   4</c></rc>
    <rc><c>O </c><c>   4</c></rc>
    <rc><c>O </c><c>   4</c></rc>
    <rc><c>O </c><c>   4</c></rc>
    <rc><c>O </c><c>   4</c></rc>
    <rc><c>O </c><c>   4</c></rc>
    <rc><c>O </c><c>   4</c></rc>
    <rc><c>O </c><c>   4</c></rc>
    <rc><c>O </c><c>   4</c></rc>
    <rc><c>O </c><c>   4</c></rc>
    <rc><c>O </c><c>   4</c></rc>
    <rc><c>O </c><c>   4</c></rc>
    <rc><c>O </c><c>   4</c></rc>
    <rc><c>O </c><c>   4</c></rc>
    <rc><c>O </c><c>   4</c></rc>
    <rc><c>O </c><c>   4</c></rc>
    <rc><c>O </c><c>   4</c></rc>
    <rc><c>O </c><c>   4</c></rc>
    <rc><c>O </c><c>   4</c></rc>
    <rc><c>O </c><c>   4</c></rc>
    <rc><c>O </c><c>   4</c></rc>
    <rc><c>O </c><c>   4</c></rc>
    <rc><c>O </c><c>   4</c></rc>
    <rc><c>O </c><c>   4</c></rc>
    <rc><c>O </c><c>   4</c></rc>
    <rc><c>O </c><c>   4</c></rc>
    <rc><c>O </c><c>   4</c></rc>
    <rc><c>O </c><c>   4</c></rc>
    <rc><c>O </c><c>   4</c></rc>
    <rc><c>O </c><c>   4</c></rc>
    <rc><c>O </c><c>   4</c></rc>
    <rc><c>O </c><c>   4</c></rc>
   </set>
  </array>
  <array name="atomtypes" >
   <dimension dim="1">type</dimension>
   <field type="int">atomspertype</field>
   <field type="string">element</field>
   <field>mass</field>
   <field>valence</field>
   <field type="string">pseudopotential</field>
   <set>
    <rc><c>  15</c><c>Ir</c><c>    192.22000000</c><c>      9.00000000</c><c>  PAW_PBE Ir 06Sep2000                  </c></rc>
    <rc><c>  32</c><c>O </c><c>     16.00000000</c><c>      6.00000000</c><c>  PAW_PBE O 08Apr2002                   </c></rc>
    <rc><c>  15</c><c>Ir</c><c>    192.22000000</c><c>      9.00000000</c><c>  PAW_PBE Ir 06Sep2000                  </c></rc>
    <rc><c>  33</c><c>O </c><c>     16.00000000</c><c>      6.00000000</c><c>  PAW_PBE O 08Apr2002                   </c></rc>
   </set>
  </array>
 </atominfo>
 <structure name="initialpos" >
  <crystal>
   <varray name="basis" >
    <v>      12.80853200       0.00000000       0.00000000 </v>
    <v>       0.00000000       6.47024300       0.00000000 </v>
    <v>       0.00000000       0.00000000      25.88097200 </v>
   </varray>
   <i name="volume">   2144.86781344 </i>
   <varray name="rec_basis" >
    <v>       0.07807296       0.00000000       0.00000000 </v>
    <v>       0.00000000       0.15455370       0.00000000 </v>
    <v>       0.00000000       0.00000000       0.03863843 </v>
   </varray>
  </crystal>
  <varray name="positions" >
   <v>       0.12500000       0.50000000       0.18750000 </v>
   <v>       0.37500000       0.50000000       0.18750000 </v>
   <v>       0.12500000       0.00000000       0.06250000 </v>
   <v>       0.37500000       0.00000000       0.06250000 </v>
   <v>       0.00000000       0.50000000       0.06250000 </v>
   <v>       0.25000000       0.50000000       0.06250000 </v>
   <v>       0.00000000       0.00000000       0.18750000 </v>
   <v>       0.25000000       0.00000000       0.18750000 </v>
   <v>       0.12707847       0.50000000       0.44220101 </v>
   <v>       0.12445708       0.00000000       0.31198785 </v>
   <v>       0.37533373       0.00000000       0.31200086 </v>
   <v>       0.00164430       0.50000000       0.31378983 </v>
   <v>       0.24877575       0.50000000       0.31342515 </v>
   <v>       0.99666296       0.00000000       0.43534678 </v>
   <v>       0.25665283       0.00000000       0.43538169 </v>
   <v>       0.00000000       0.50000000       0.13961000 </v>
   <v>       0.25000000       0.50000000       0.13961000 </v>
   <v>       0.00000000       0.00000000       0.01461000 </v>
   <v>       0.25000000       0.00000000       0.01461000 </v>
   <v>       0.12500000       0.80844000       0.18750000 </v>
   <v>       0.37500000       0.80844000       0.18750000 </v>
   <v>       0.12500000       0.30844000       0.06250000 </v>
   <v>       0.37500000       0.30844000       0.06250000 </v>
   <v>       0.00000000       0.50000000       0.23539000 </v>
   <v>       0.25000000       0.50000000       0.23539000 </v>
   <v>       0.00000000       0.00000000       0.11039000 </v>
   <v>       0.25000000       0.00000000       0.11039000 </v>
   <v>       0.12500000       0.19156000       0.18750000 </v>
   <v>       0.37500000       0.19156000       0.18750000 </v>
   <v>       0.12500000       0.69156000       0.06250000 </v>
   <v>       0.37500000       0.69156000       0.06250000 </v>
   <v>       0.01662344       0.50000000       0.38635857 </v>
   <v>       0.23543919       0.50000000       0.38624761 </v>
   <v>       0.99886690       0.00000000       0.26466879 </v>
   <v>       0.25004800       0.00000000       0.26438676 </v>
   <v>       0.12703588       0.81470113       0.44248937 </v>
   <v>       0.37621279       0.81916033       0.44245378 </v>
   <v>       0.12496298       0.30843831       0.30917795 </v>
   <v>       0.37557751       0.30922204       0.31368450 </v>
   <v>       0.01880762       0.50000000       0.48546631 </v>
   <v>       0.23353803       0.50000000       0.48643094 </v>
   <v>       0.99929877       0.00000000       0.36015736 </v>
   <v>       0.25008712       0.00000000       0.35998099 </v>
   <v>       0.12703588       0.18529887       0.44248937 </v>
   <v>       0.37621279       0.18083967       0.44245378 </v>
   <v>       0.12496298       0.69156169       0.30917795 </v>
   <v>       0.37557751       0.69077796       0.31368450 </v>
   <v>       0.62500000       0.50000000       0.18750000 </v>
   <v>       0.87500000       0.50000000       0.18750000 </v>
   <v>       0.62500000       0.00000000       0.06250000 </v>
   <v>       0.87500000       0.00000000       0.06250000 </v>
   <v>       0.50000000       0.50000000       0.06250000 </v>
   <v>       0.75000000       0.50000000       0.06250000 </v>
   <v>       0.50000000       0.00000000       0.18750000 </v>
   <v>       0.75000000       0.00000000       0.18750000 </v>
   <v>       0.62592482       0.50000000       0.44175077 </v>
   <v>       0.62679772       0.00000000       0.31302075 </v>
   <v>       0.87299466       0.00000000       0.31350503 </v>
   <v>       0.50183249       0.50000000       0.31377422 </v>
   <v>       0.74861410       0.50000000       0.31357067 </v>
   <v>       0.49725382       0.00000000       0.43520893 </v>
   <v>       0.75758307       0.00000000       0.44807243 </v>
   <v>       0.50000000       0.50000000       0.13961000 </v>
   <v>       0.75000000       0.50000000       0.13961000 </v>
   <v>       0.50000000       0.00000000       0.01461000 </v>
   <v>       0.75000000       0.00000000       0.01461000 </v>
   <v>       0.62500000       0.80844000       0.18750000 </v>
   <v>       0.87500000       0.80844000       0.18750000 </v>
   <v>       0.62500000       0.30844000       0.06250000 </v>
   <v>       0.87500000       0.30844000       0.06250000 </v>
   <v>       0.50000000       0.50000000       0.23539000 </v>
   <v>       0.75000000       0.50000000       0.23539000 </v>
   <v>       0.50000000       0.00000000       0.11039000 </v>
   <v>       0.75000000       0.00000000       0.11039000 </v>
   <v>       0.62500000       0.19156000       0.18750000 </v>
   <v>       0.87500000       0.19156000       0.18750000 </v>
   <v>       0.62500000       0.69156000       0.06250000 </v>
   <v>       0.87500000       0.69156000       0.06250000 </v>
   <v>       0.51493906       0.50000000       0.38653191 </v>
   <v>       0.73301094       0.50000000       0.38611259 </v>
   <v>       0.50073979       0.00000000       0.26466470 </v>
   <v>       0.75021926       0.00000000       0.26472688 </v>
   <v>       0.62549050       0.81328490       0.44131082 </v>
   <v>       0.87491444       0.81670569       0.43854525 </v>
   <v>       0.62531700       0.30777083       0.30932694 </v>
   <v>       0.87467132       0.30888321       0.31436392 </v>
   <v>       0.51967266       0.50000000       0.48606080 </v>
   <v>       0.73323518       0.50000000       0.48592587 </v>
   <v>       0.49959763       0.00000000       0.36001425 </v>
   <v>       0.74917933       0.00000000       0.36217786 </v>
   <v>       0.62549050       0.18671510       0.44131082 </v>
   <v>       0.87491444       0.18329431       0.43854525 </v>
   <v>       0.62531700       0.69222917       0.30932694 </v>
   <v>       0.87467132       0.69111679       0.31436392 </v>
   <v>       0.75052152       0.00000000       0.51617949 </v>
  </varray>
  <varray name="selective"  type="logical" >
   <v type="logical" >  F  F  F </v>
   <v type="logical" >  F  F  F </v>
   <v type="logical" >  F  F  F </v>
   <v type="logical" >  F  F  F </v>
   <v type="logical" >  F  F  F </v>
   <v type="logical" >  F  F  F </v>
   <v type="logical" >  F  F  F </v>
   <v type="logical" >  F  F  F </v>
   <v type="logical" >  F  F  F </v>
   <v type="logical" >  F  F  F </v>
   <v type="logical" >  F  F  F </v>
   <v type="logical" >  F  F  F </v>
   <v type="logical" >  F  F  F </v>
   <v type="logical" >  F  F  F </v>
   <v type="logical" >  F  F  F </v>
   <v type="logical" >  F  F  F </v>
   <v type="logical" >  F  F  F </v>
   <v type="logical" >  F  F  F </v>
   <v type="logical" >  F  F  F </v>
   <v type="logical" >  F  F  F </v>
   <v type="logical" >  F  F  F </v>
   <v type="logical" >  F  F  F </v>
   <v type="logical" >  F  F  F </v>
   <v type="logical" >  F  F  F </v>
   <v type="logical" >  F  F  F </v>
   <v type="logical" >  F  F  F </v>
   <v type="logical" >  F  F  F </v>
   <v type="logical" >  F  F  F </v>
   <v type="logical" >  F  F  F </v>
   <v type="logical" >  F  F  F </v>
   <v type="logical" >  F  F  F </v>
   <v type="logical" >  F  F  F </v>
   <v type="logical" >  F  F  F </v>
   <v type="logical" >  F  F  F </v>
   <v type="logical" >  F  F  F </v>
   <v type="logical" >  F  F  F </v>
   <v type="logical" >  F  F  F </v>
   <v type="logical" >  F  F  F </v>
   <v type="logical" >  F  F  F </v>
   <v type="logical" >  F  F  F </v>
   <v type="logical" >  F  F  F </v>
   <v type="logical" >  F  F  F </v>
   <v type="logical" >  F  F  F </v>
   <v type="logical" >  F  F  F </v>
   <v type="logical" >  F  F  F </v>
   <v type="logical" >  F  F  F </v>
   <v type="logical" >  F  F  F </v>
   <v type="logical" >  F  F  F </v>
   <v type="logical" >  F  F  F </v>
   <v type="logical" >  F  F  F </v>
   <v type="logical" >  F  F  F </v>
   <v type="logical" >  F  F  F </v>
   <v type="logical" >  F  F  F </v>
   <v type="logical" >  F  F  F </v>
   <v type="logical" >  F  F  F </v>
   <v type="logical" >  F  F  F </v>
   <v type="logical" >  F  F  F </v>
   <v type="logical" >  F  F  F </v>
   <v type="logical" >  F  F  F </v>
   <v type="logical" >  F  F  F </v>
   <v type="logical" >  F  F  F </v>
   <v type="logical" >  F  F  F </v>
   <v type="logical" >  F  F  F </v>
   <v type="logical" >  F  F  F </v>
   <v type="logical" >  F  F  F </v>
   <v type="logical" >  F  F  F </v>
   <v type="logical" >  F  F  F </v>
   <v type="logical" >  F  F  F </v>
   <v type="logical" >  F  F  F </v>
   <v type="logical" >  F  F  F </v>
   <v type="logical" >  F  F  F </v>
   <v type="logical" >  F  F  F </v>
   <v type="logical" >  F  F  F </v>
   <v type="logical" >  F  F  F </v>
   <v type="logical" >  F  F  F </v>
   <v type="logical" >  F  F  F </v>
   <v type="logical" >  F  F  F </v>
   <v type="logical" >  F  F  F </v>
   <v type="logical" >  F  F  F </v>
   <v type="logical" >  F  F  F </v>
   <v type="logical" >  F  F  F </v>
   <v type="logical" >  F  F  F </v>
   <v type="logical" >  F  F  F </v>
   <v type="logical" >  F  F  F </v>
   <v type="logical" >  F  F  F </v>
   <v type="logical" >  F  F  F </v>
   <v type="logical" >  F  F  F </v>
   <v type="logical" >  F  F  F </v>
   <v type="logical" >  F  F  F </v>
   <v type="logical" >  F  F  F </v>
   <v type="logical" >  F  F  F </v>
   <v type="logical" >  F  F  F </v>
   <v type="logical" >  F  F  F </v>
   <v type="logical" >  F  F  F </v>
   <v type="logical" >  T  T  T </v>
  </varray>
  <nose>
   <v>      -3.00000000       0.00000000       0.00010000       0.00010000 </v>
  </nose>
 </structure>
 <calculation>
  <scstep>
   <time name="dav">   15.23   15.30</time>
   <time name="total">   15.40   15.48</time>
   <energy>
    <i name="alphaZ">   1632.74823113 </i>
    <i name="ewald"> 222841.60604419 </i>
    <i name="hartreedc">-267033.95501019 </i>
    <i name="XCdc">   1260.26499484 </i>
    <i name="pawpsdc">  39104.55472761 </i>
    <i name="pawaedc"> -37966.25523736 </i>
    <i name="eentropy">     -0.05731099 </i>
    <i name="bandstr">   2342.32522946 </i>
    <i name="atom">  44882.29841852 </i>
    <i name="e_fr_energy">   7063.53008720 </i>
    <i name="e_wo_entrp">   7063.58739819 </i>
    <i name="e_0_energy">   7063.55874270 </i>
   </energy>
  </scstep>
  <scstep>
   <time name="dav">   15.79   15.83</time>
   <time name="total">   15.79   15.83</time>
   <energy>
    <i name="e_fr_energy">    405.39277980 </i>
    <i name="e_wo_entrp">    405.44467028 </i>
    <i name="e_0_energy">    405.41872504 </i>
   </energy>
  </scstep>
  <scstep>
   <time name="dav">   18.85   18.92</time>
   <time name="total">   18.85   18.92</time>
   <energy>
    <i name="e_fr_energy">   -690.53391899 </i>
    <i name="e_wo_entrp">   -690.45575941 </i>
    <i name="e_0_energy">   -690.49483920 </i>
   </energy>
  </scstep>
  <scstep>
   <time name="dav">   17.74   17.82</time>
   <time name="total">   17.74   17.82</time>
   <energy>
    <i name="e_fr_energy">   -737.88150608 </i>
    <i name="e_wo_entrp">   -737.79464373 </i>
    <i name="e_0_energy">   -737.83807490 </i>
   </energy>
  </scstep>
  <scstep>
   <time name="dav">   17.99   18.05</time>
   <time name="total">   18.72   18.78</time>
   <energy>
    <i name="e_fr_energy">   -739.21213568 </i>
    <i name="e_wo_entrp">   -739.12468904 </i>
    <i name="e_0_energy">   -739.16841236 </i>
   </energy>
  </scstep>
  <scstep>
   <time name="diag">    3.05    3.06</time>
   <time name="diis">    8.25    8.28</time>
   <time name="orth">    0.71    0.71</time>
   <time name="total">   12.88   12.92</time>
   <energy>
    <i name="e_fr_energy">   -605.92845250 </i>
    <i name="e_wo_entrp">   -605.84714469 </i>
    <i name="e_0_energy">   -605.88779860 </i>
   </energy>
  </scstep>
  <scstep>
   <time name="diag">    3.05    3.06</time>
   <time name="diis">    8.25    8.27</time>
   <time name="orth">    0.71    0.71</time>
   <time name="total">   12.87   12.92</time>
   <energy>
    <i name="e_fr_energy">   -789.81404698 </i>
    <i name="e_wo_entrp">   -789.77872139 </i>
    <i name="e_0_energy">   -789.79638419 </i>
   </energy>
  </scstep>
  <scstep>
   <time name="diag">    3.05    3.06</time>
   <time name="diis">    8.25    8.27</time>
   <time name="orth">    0.71    0.71</time>
   <time name="total">   12.87   12.91</time>
   <energy>
    <i name="e_fr_energy">   -695.36165441 </i>
    <i name="e_wo_entrp">   -695.29692235 </i>
    <i name="e_0_energy">   -695.32928838 </i>
   </energy>
  </scstep>
  <scstep>
   <time name="diag">    3.05    3.06</time>
   <time name="diis">    8.18    8.21</time>
   <time name="orth">    0.71    0.71</time>
   <time name="total">   12.79   12.85</time>
   <energy>
    <i name="e_fr_energy">   -628.17520962 </i>
    <i name="e_wo_entrp">   -628.11968618 </i>
    <i name="e_0_energy">   -628.14744790 </i>
   </energy>
  </scstep>
  <scstep>
   <time name="diag">    3.05    3.06</time>
   <time name="diis">    8.25    8.28</time>
   <time name="orth">    0.71    0.71</time>
   <time name="total">   12.88   12.92</time>
   <energy>
    <i name="e_fr_energy">   -574.95743597 </i>
    <i name="e_wo_entrp">   -574.87198324 </i>
    <i name="e_0_energy">   -574.91470960 </i>
   </energy>
  </scstep>
  <scstep>
   <time name="diag">    3.05    3.05</time>
   <time name="diis">    8.27    8.29</time>
   <time name="orth">    0.71    0.71</time>
   <time name="total">   12.89   12.93</time>
   <energy>
    <i name="e_fr_energy">   -578.80089225 </i>
    <i name="e_wo_entrp">   -578.73539299 </i>
    <i name="e_0_energy">   -578.76814262 </i>
   </energy>
  </scstep>
  <scstep>
   <time name="diag">    3.08    3.09</time>
   <time name="diis">    8.25    8.28</time>
   <time name="orth">    0.71    0.71</time>
   <time name="total">   12.91   12.95</time>
   <energy>
    <i name="e_fr_energy">   -581.52588493 </i>
    <i name="e_wo_entrp">   -581.46853201 </i>
    <i name="e_0_energy">   -581.49720847 </i>
   </energy>
  </scstep>
  <scstep>
   <time name="diag">    3.05    3.06</time>
   <time name="diis">    8.24    8.27</time>
   <time name="orth">    0.71    0.71</time>
   <time name="total">   12.87   12.90</time>
   <energy>
    <i name="e_fr_energy">   -571.08966937 </i>
    <i name="e_wo_entrp">   -571.01992416 </i>
    <i name="e_0_energy">   -571.05479676 </i>
   </energy>
  </scstep>
  <scstep>
   <time name="diag">    3.04    3.05</time>
   <time name="diis">    8.25    8.27</time>
   <time name="orth">    0.71    0.71</time>
   <time name="total">   12.86   12.90</time>
   <energy>
    <i name="e_fr_energy">   -572.99704536 </i>
    <i name="e_wo_entrp">   -572.92186000 </i>
    <i name="e_0_energy">   -572.95945268 </i>
   </energy>
  </scstep>
  <scstep>
   <time name="diag">    3.04    3.07</time>
   <time name="diis">    8.24    8.26</time>
   <time name="orth">    0.71    0.71</time>
   <time name="total">   12.86   12.92</time>
   <energy>
    <i name="e_fr_energy">   -577.09580497 </i>
    <i name="e_wo_entrp">   -577.02220083 </i>
    <i name="e_0_energy">   -577.05900290 </i>
   </energy>
  </scstep>
  <scstep>
   <time name="diag">    3.04    3.05</time>
   <time name="diis">    8.24    8.26</time>
   <time name="orth">    0.71    0.71</time>
   <time name="total">   12.86   12.90</time>
   <energy>
    <i name="e_fr_energy">   -581.88208232 </i>
    <i name="e_wo_entrp">   -581.82053245 </i>
    <i name="e_0_energy">   -581.85130739 </i>
   </energy>
  </scstep>
  <scstep>
   <time name="diag">    3.04    3.05</time>
   <time name="diis">    8.23    8.26</time>
   <time name="orth">    0.70    0.71</time>
   <time name="total">   12.85   12.89</time>
   <energy>
    <i name="e_fr_energy">   -586.64554003 </i>
    <i name="e_wo_entrp">   -586.57861311 </i>
    <i name="e_0_energy">   -586.61207657 </i>
   </energy>
  </scstep>
  <scstep>
   <time name="diag">    3.04    3.05</time>
   <time name="diis">    8.24    8.27</time>
   <time name="orth">    0.71    0.71</time>
   <time name="total">   12.86   12.90</time>
   <energy>
    <i name="e_fr_energy">   -588.11334112 </i>
    <i name="e_wo_entrp">   -588.04961136 </i>
    <i name="e_0_energy">   -588.08147624 </i>
   </energy>
  </scstep>
  <scstep>
   <time name="diag">    3.08    3.09</time>
   <time name="diis">    8.25    8.27</time>
   <time name="orth">    0.72    0.72</time>
   <time name="total">   12.93   12.96</time>
   <energy>
    <i name="e_fr_energy">   -590.06022111 </i>
    <i name="e_wo_entrp">   -589.99730602 </i>
    <i name="e_0_energy">   -590.02876357 </i>
   </energy>
  </scstep>
  <scstep>
   <time name="diag">    3.04    3.05</time>
   <time name="diis">    8.25    8.27</time>
   <time name="orth">    0.71    0.71</time>
   <time name="total">   12.86   12.91</time>
   <energy>
    <i name="e_fr_energy">   -591.92822477 </i>
    <i name="e_wo_entrp">   -591.86623036 </i>
    <i name="e_0_energy">   -591.89722757 </i>
   </energy>
  </scstep>
  <scstep>
   <time name="diag">    3.04    3.05</time>
   <time name="diis">    8.23    8.25</time>
   <time name="orth">    0.71    0.71</time>
   <time name="total">   12.85   12.88</time>
   <energy>
    <i name="e_fr_energy">   -593.60169453 </i>
    <i name="e_wo_entrp">   -593.53820351 </i>
    <i name="e_0_energy">   -593.56994902 </i>
   </energy>
  </scstep>
  <scstep>
   <time name="diag">    3.04    3.05</time>
   <time name="diis">    8.25    8.27</time>
   <time name="orth">    0.71    0.71</time>
   <time name="total">   12.87   12.92</time>
   <energy>
    <i name="e_fr_energy">   -595.60782391 </i>
    <i name="e_wo_entrp">   -595.53092692 </i>
    <i name="e_0_energy">   -595.56937542 </i>
   </energy>
  </scstep>
  <scstep>
   <time name="diag">    3.05    3.06</time>
   <time name="diis">    8.23    8.25</time>
   <time name="orth">    0.71    0.71</time>
   <time name="total">   12.86   12.90</time>
   <energy>
    <i name="e_fr_energy">   -596.31690404 </i>
    <i name="e_wo_entrp">   -596.24449137 </i>
    <i name="e_0_energy">   -596.28069770 </i>
   </energy>
  </scstep>
  <scstep>
   <time name="diag">    3.05    3.06</time>
   <time name="diis">    8.22    8.25</time>
   <time name="orth">    0.71    0.72</time>
   <time name="total">   12.86   12.90</time>
   <energy>
    <i name="e_fr_energy">   -596.94313368 </i>
    <i name="e_wo_entrp">   -596.86738039 </i>
    <i name="e_0_energy">   -596.90525704 </i>
   </energy>
  </scstep>
  <scstep>
   <time name="diag">    3.04    3.05</time>
   <time name="diis">    8.22    8.24</time>
   <time name="orth">    0.71    0.71</time>
   <time name="total">   12.84   12.88</time>
   <energy>
    <i name="e_fr_energy">   -597.45450947 </i>
    <i name="e_wo_entrp">   -597.37848229 </i>
    <i name="e_0_energy">   -597.41649588 </i>
   </energy>
  </scstep>
  <scstep>
   <time name="diag">    3.07    3.08</time>
   <time name="diis">    8.18    8.24</time>
   <time name="orth">    0.71    0.71</time>
   <time name="total">   12.84   12.91</time>
   <energy>
    <i name="e_fr_energy">   -597.72802070 </i>
    <i name="e_wo_entrp">   -597.65777959 </i>
    <i name="e_0_energy">   -597.69290014 </i>
   </energy>
  </scstep>
  <scstep>
   <time name="diag">    3.03    3.04</time>
   <time name="diis">    8.22    8.25</time>
   <time name="orth">    0.71    0.71</time>
   <time name="total">   12.84   12.88</time>
   <energy>
    <i name="e_fr_energy">   -597.89583090 </i>
    <i name="e_wo_entrp">   -597.83053722 </i>
    <i name="e_0_energy">   -597.86318406 </i>
   </energy>
  </scstep>
  <scstep>
   <time name="diag">    3.04    3.05</time>
   <time name="diis">    8.27    8.29</time>
   <time name="orth">    0.71    0.71</time>
   <time name="total">   12.89   12.93</time>
   <energy>
    <i name="e_fr_energy">   -597.98119458 </i>
    <i name="e_wo_entrp">   -597.91847839 </i>
    <i name="e_0_energy">   -597.94983649 </i>
   </energy>
  </scstep>
  <scstep>
   <time name="diag">    3.04    3.05</time>
   <time name="diis">    8.22    8.24</time>
   <time name="orth">    0.71    0.71</time>
   <time name="total">   12.84   12.88</time>
   <energy>
    <i name="e_fr_energy">   -598.04223478 </i>
    <i name="e_wo_entrp">   -597.98067022 </i>
    <i name="e_0_energy">   -598.01145250 </i>
   </energy>
  </scstep>
  <scstep>
   <time name="diag">    3.04    3.05</time>
   <time name="diis">    8.22    8.24</time>
   <time name="orth">    0.71    0.71</time>
   <time name="total">   12.83   12.87</time>
   <energy>
    <i name="e_fr_energy">   -598.08238730 </i>
    <i name="e_wo_entrp">   -598.02279092 </i>
    <i name="e_0_energy">   -598.05258911 </i>
   </energy>
  </scstep>
  <scstep>
   <time name="diag">    3.03    3.04</time>
   <time name="diis">    8.21    8.24</time>
   <time name="orth">    0.71    0.71</time>
   <time name="total">   12.82   12.87</time>
   <energy>
    <i name="e_fr_energy">   -598.12677015 </i>
    <i name="e_wo_entrp">   -598.06704960 </i>
    <i name="e_0_energy">   -598.09690987 </i>
   </energy>
  </scstep>
  <scstep>
   <time name="diag">    3.03    3.04</time>
   <time name="diis">    8.22    8.25</time>
   <time name="orth">    0.71    0.71</time>
   <time name="total">   12.84   12.89</time>
   <energy>
    <i name="e_fr_energy">   -598.18901168 </i>
    <i name="e_wo_entrp">   -598.12983569 </i>
    <i name="e_0_energy">   -598.15942368 </i>
   </energy>
  </scstep>
  <scstep>
   <time name="diag">    3.07    3.07</time>
   <time name="diis">    8.23    8.26</time>
   <time name="orth">    0.71    0.71</time>
   <time name="total">   12.89   12.92</time>
   <energy>
    <i name="e_fr_energy">   -598.26068933 </i>
    <i name="e_wo_entrp">   -598.20189219 </i>
    <i name="e_0_energy">   -598.23129076 </i>
   </energy>
  </scstep>
  <scstep>
   <time name="diag">    3.03    3.04</time>
   <time name="diis">    8.23    8.25</time>
   <time name="orth">    0.71    0.71</time>
   <time name="total">   12.84   12.88</time>
   <energy>
    <i name="e_fr_energy">   -598.32930248 </i>
    <i name="e_wo_entrp">   -598.27068877 </i>
    <i name="e_0_energy">   -598.29999563 </i>
   </energy>
  </scstep>
  <scstep>
   <time name="diag">    3.04    3.05</time>
   <time name="diis">    8.23    8.25</time>
   <time name="orth">    0.71    0.71</time>
   <time name="total">   12.84   12.88</time>
   <energy>
    <i name="e_fr_energy">   -598.40385200 </i>
    <i name="e_wo_entrp">   -598.34559600 </i>
    <i name="e_0_energy">   -598.37472400 </i>
   </energy>
  </scstep>
  <scstep>
   <time name="diag">    3.04    3.05</time>
   <time name="diis">    8.23    8.25</time>
   <time name="orth">    0.71    0.71</time>
   <time name="total">   12.85   12.89</time>
   <energy>
    <i name="e_fr_energy">   -598.48478820 </i>
    <i name="e_wo_entrp">   -598.42690596 </i>
    <i name="e_0_energy">   -598.45584708 </i>
   </energy>
  </scstep>
  <scstep>
   <time name="diag">    3.03    3.04</time>
   <time name="diis">    8.24    8.26</time>
   <time name="orth">    0.71    0.71</time>
   <time name="total">   12.86   12.90</time>
   <energy>
    <i name="e_fr_energy">   -598.56489886 </i>
    <i name="e_wo_entrp">   -598.50739345 </i>
    <i name="e_0_energy">   -598.53614615 </i>
   </energy>
  </scstep>
  <scstep>
   <time name="diag">    3.03    3.04</time>
   <time name="diis">    8.18    8.23</time>
   <time name="orth">    0.71    0.71</time>
   <time name="total">   12.80   12.87</time>
   <energy>
    <i name="e_fr_energy">   -598.62708178 </i>
    <i name="e_wo_entrp">   -598.56968808 </i>
    <i name="e_0_energy">   -598.59838493 </i>
   </energy>
  </scstep>
  <scstep>
   <time name="diag">    3.05    3.06</time>
   <time name="diis">    8.25    8.28</time>
   <time name="orth">    0.71    0.71</time>
   <time name="total">   12.89   12.93</time>
   <energy>
    <i name="e_fr_energy">   -598.67524161 </i>
    <i name="e_wo_entrp">   -598.61801995 </i>
    <i name="e_0_energy">   -598.64663078 </i>
   </energy>
  </scstep>
  <scstep>
   <time name="diag">    3.08    3.08</time>
   <time name="diis">    8.22    8.24</time>
   <time name="orth">    0.71    0.71</time>
   <time name="total">   12.88   12.92</time>
   <energy>
    <i name="e_fr_energy">   -598.72292246 </i>
    <i name="e_wo_entrp">   -598.66579935 </i>
    <i name="e_0_energy">   -598.69436090 </i>
   </energy>
  </scstep>
  <scstep>
   <time name="diag">    3.03    3.04</time>
   <time name="diis">    8.25    8.27</time>
   <time name="orth">    0.71    0.71</time>
   <time name="total">   12.88   12.91</time>
   <energy>
    <i name="e_fr_energy">   -598.77223363 </i>
    <i name="e_wo_entrp">   -598.71523029 </i>
    <i name="e_0_energy">   -598.74373196 </i>
   </energy>
  </scstep>
  <scstep>
   <time name="diag">    3.04    3.05</time>
   <time name="diis">    8.29    8.31</time>
   <time name="orth">    0.71    0.71</time>
   <time name="total">   12.91   12.96</time>
   <energy>
    <i name="e_fr_energy">   -598.80292971 </i>
    <i name="e_wo_entrp">   -598.74592938 </i>
    <i name="e_0_energy">   -598.77442954 </i>
   </energy>
  </scstep>
  <scstep>
   <time name="diag">    3.03    3.04</time>
   <time name="diis">    8.32    8.35</time>
   <time name="orth">    0.71    0.71</time>
   <time name="total">   12.95   12.99</time>
   <energy>
    <i name="e_fr_energy">   -598.82040036 </i>
    <i name="e_wo_entrp">   -598.76346418 </i>
    <i name="e_0_energy">   -598.79193227 </i>
   </energy>
  </scstep>
  <scstep>
   <time name="diag">    3.05    3.06</time>
   <time name="diis">    7.90    7.93</time>
   <time name="orth">    0.71    0.71</time>
   <time name="total">   12.54   12.59</time>
   <energy>
    <i name="e_fr_energy">   -598.82662248 </i>
    <i name="e_wo_entrp">   -598.76970030 </i>
    <i name="e_0_energy">   -598.79816139 </i>
   </energy>
  </scstep>
  <scstep>
   <time name="diag">    3.03    3.04</time>
   <time name="diis">    7.64    7.67</time>
   <time name="orth">    0.71    0.71</time>
   <time name="total">   12.26   12.31</time>
   <energy>
    <i name="e_fr_energy">   -598.83060571 </i>
    <i name="e_wo_entrp">   -598.77367274 </i>
    <i name="e_0_energy">   -598.80213922 </i>
   </energy>
  </scstep>
  <scstep>
   <time name="diag">    3.03    3.04</time>
   <time name="diis">    7.61    7.70</time>
   <time name="orth">    0.71    0.71</time>
   <time name="total">   12.24   12.35</time>
   <energy>
    <i name="e_fr_energy">   -598.83437428 </i>
    <i name="e_wo_entrp">   -598.77745489 </i>
    <i name="e_0_energy">   -598.80591459 </i>
   </energy>
  </scstep>
  <scstep>
   <time name="diag">    3.07    3.07</time>
   <time name="diis">    6.83    6.85</time>
   <time name="orth">    0.71    0.71</time>
   <time name="total">   11.49   11.53</time>
   <energy>
    <i name="e_fr_energy">   -598.83568906 </i>
    <i name="e_wo_entrp">   -598.77875896 </i>
    <i name="e_0_energy">   -598.80722401 </i>
   </energy>
  </scstep>
  <scstep>
   <time name="diag">    3.03    3.04</time>
   <time name="diis">    6.39    6.41</time>
   <time name="orth">    0.71    0.71</time>
   <time name="total">   11.01   11.04</time>
   <energy>
    <i name="e_fr_energy">   -598.83658141 </i>
    <i name="e_wo_entrp">   -598.77964403 </i>
    <i name="e_0_energy">   -598.80811272 </i>
   </energy>
  </scstep>
  <scstep>
   <time name="diag">    3.02    3.03</time>
   <time name="diis">    6.43    6.45</time>
   <time name="orth">    0.71    0.71</time>
   <time name="total">   11.05   11.09</time>
   <energy>
    <i name="e_fr_energy">   -598.83742260 </i>
    <i name="e_wo_entrp">   -598.78046890 </i>
    <i name="e_0_energy">   -598.80894575 </i>
   </energy>
  </scstep>
  <scstep>
   <time name="diag">    3.02    3.03</time>
   <time name="diis">    6.21    6.26</time>
   <time name="orth">    0.71    0.71</time>
   <time name="total">   10.83   10.90</time>
   <energy>
    <i name="e_fr_energy">   -598.83806397 </i>
    <i name="e_wo_entrp">   -598.78111088 </i>
    <i name="e_0_energy">   -598.80958742 </i>
   </energy>
  </scstep>
  <scstep>
   <time name="diag">    3.03    3.04</time>
   <time name="diis">    5.90    5.91</time>
   <time name="orth">    0.71    0.71</time>
   <time name="total">   10.51   10.55</time>
   <energy>
    <i name="e_fr_energy">   -598.83841982 </i>
    <i name="e_wo_entrp">   -598.78146359 </i>
    <i name="e_0_energy">   -598.80994170 </i>
   </energy>
  </scstep>
  <scstep>
   <time name="diag">    3.03    3.04</time>
   <time name="diis">    5.24    5.25</time>
   <time name="orth">    0.71    0.71</time>
   <time name="total">    9.85    9.88</time>
   <energy>
    <i name="e_fr_energy">   -598.83853291 </i>
    <i name="e_wo_entrp">   -598.78157910 </i>
    <i name="e_0_energy">   -598.81005600 </i>
   </energy>
  </scstep>
  <scstep>
   <time name="diag">    3.03    3.04</time>
   <time name="diis">    4.98    4.99</time>
   <time name="orth">    0.71    0.71</time>
   <time name="total">    9.59    9.67</time>
   <energy>
    <i name="e_fr_energy">   -598.83859128 </i>
    <i name="e_wo_entrp">   -598.78163828 </i>
    <i name="e_0_energy">   -598.81011478 </i>
   </energy>
  </scstep>
  <scstep>
   <time name="diag">    3.03    3.04</time>
   <time name="diis">    5.40    5.42</time>
   <time name="orth">    0.71    0.71</time>
   <time name="total">   10.02   10.05</time>
   <energy>
    <i name="e_fr_energy">   -598.83872491 </i>
    <i name="e_wo_entrp">   -598.78177168 </i>
    <i name="e_0_energy">   -598.81024830 </i>
   </energy>
  </scstep>
  <scstep>
   <time name="diag">    3.04    3.04</time>
   <time name="diis">    5.66    5.68</time>
   <time name="orth">    0.71    0.71</time>
   <time name="total">   10.29   10.32</time>
   <energy>
    <i name="e_fr_energy">   -598.83882625 </i>
    <i name="e_wo_entrp">   -598.78187242 </i>
    <i name="e_0_energy">   -598.81034933 </i>
   </energy>
  </scstep>
  <scstep>
   <time name="diag">    3.03    3.04</time>
   <time name="diis">    5.13    5.15</time>
   <time name="orth">    0.71    0.71</time>
   <time name="total">    9.75    9.78</time>
   <energy>
    <i name="e_fr_energy">   -598.83886989 </i>
    <i name="e_wo_entrp">   -598.78191948 </i>
    <i name="e_0_energy">   -598.81039468 </i>
   </energy>
  </scstep>
  <scstep>
   <time name="diag">    3.03    3.04</time>
   <time name="diis">    4.94    4.95</time>
   <time name="orth">    0.71    0.71</time>
   <time name="total">    9.56    9.58</time>
   <energy>
    <i name="e_fr_energy">   -598.83889592 </i>
    <i name="e_wo_entrp">   -598.78194640 </i>
    <i name="e_0_energy">   -598.81042116 </i>
   </energy>
  </scstep>
  <scstep>
   <time name="diag">    3.04    3.06</time>
   <time name="diis">    5.27    5.28</time>
   <time name="orth">    0.71    0.73</time>
   <time name="total">    9.91    9.95</time>
   <energy>
    <i name="e_fr_energy">   -598.83892925 </i>
    <i name="e_wo_entrp">   -598.78198446 </i>
    <i name="e_0_energy">   -598.81045686 </i>
   </energy>
  </scstep>
  <scstep>
   <time name="diag">    3.03    3.04</time>
   <time name="diis">    5.29    5.30</time>
   <time name="orth">    0.71    0.71</time>
   <time name="total">    9.91    9.94</time>
   <energy>
    <i name="e_fr_energy">   -598.83894825 </i>
    <i name="e_wo_entrp">   -598.78201208 </i>
    <i name="e_0_energy">   -598.81048016 </i>
   </energy>
  </scstep>
  <scstep>
   <time name="diag">    3.03    3.04</time>
   <time name="diis">    4.80    4.81</time>
   <time name="orth">    0.71    0.71</time>
   <time name="total">    8.68    8.72</time>
   <energy>
    <i name="alphaZ">   1632.74823113 </i>
    <i name="ewald"> 222841.60604419 </i>
    <i name="hartreedc">-267175.68242528 </i>
    <i name="XCdc">   1299.29963684 </i>
    <i name="pawpsdc">  59110.73702367 </i>
    <i name="pawaedc"> -58080.07048317 </i>
    <i name="eentropy">     -0.05693358 </i>
    <i name="bandstr">  -5109.71846233 </i>
    <i name="atom">  44882.29841852 </i>
    <i name="e_fr_energy">   -598.83895003 </i>
    <i name="e_wo_entrp">   -598.78201644 </i>
    <i name="e_0_energy">   -598.81048323 </i>
   </energy>
  </scstep>
  <structure>
   <crystal>
    <varray name="basis" >
     <v>      12.80853200       0.00000000       0.00000000 </v>
     <v>       0.00000000       6.47024300       0.00000000 </v>
     <v>       0.00000000       0.00000000      25.88097200 </v>
    </varray>
    <i name="volume">   2144.86781344 </i>
    <varray name="rec_basis" >
     <v>       0.07807296       0.00000000       0.00000000 </v>
     <v>       0.00000000       0.15455370       0.00000000 </v>
     <v>       0.00000000       0.00000000       0.03863843 </v>
    </varray>
   </crystal>
   <varray name="positions" >
    <v>       0.12500000       0.50000000       0.18750000 </v>
    <v>       0.37500000       0.50000000       0.18750000 </v>
    <v>       0.12500000       0.00000000       0.06250000 </v>
    <v>       0.37500000       0.00000000       0.06250000 </v>
    <v>       0.00000000       0.50000000       0.06250000 </v>
    <v>       0.25000000       0.50000000       0.06250000 </v>
    <v>       0.00000000       0.00000000       0.18750000 </v>
    <v>       0.25000000       0.00000000       0.18750000 </v>
    <v>       0.12707847       0.50000000       0.44220101 </v>
    <v>       0.12445708       0.00000000       0.31198785 </v>
    <v>       0.37533373       0.00000000       0.31200086 </v>
    <v>       0.00164430       0.50000000       0.31378983 </v>
    <v>       0.24877575       0.50000000       0.31342515 </v>
    <v>       0.99666296       0.00000000       0.43534678 </v>
    <v>       0.25665283       0.00000000       0.43538169 </v>
    <v>       0.00000000       0.50000000       0.13961000 </v>
    <v>       0.25000000       0.50000000       0.13961000 </v>
    <v>       0.00000000       0.00000000       0.01461000 </v>
    <v>       0.25000000       0.00000000       0.01461000 </v>
    <v>       0.12500000       0.80844000       0.18750000 </v>
    <v>       0.37500000       0.80844000       0.18750000 </v>
    <v>       0.12500000       0.30844000       0.06250000 </v>
    <v>       0.37500000       0.30844000       0.06250000 </v>
    <v>       0.00000000       0.50000000       0.23539000 </v>
    <v>       0.25000000       0.50000000       0.23539000 </v>
    <v>       0.00000000       0.00000000       0.11039000 </v>
    <v>       0.25000000       0.00000000       0.11039000 </v>
    <v>       0.12500000       0.19156000       0.18750000 </v>
    <v>       0.37500000       0.19156000       0.18750000 </v>
    <v>       0.12500000       0.69156000       0.06250000 </v>
    <v>       0.37500000       0.69156000       0.06250000 </v>
    <v>       0.01662344       0.50000000       0.38635857 </v>
    <v>       0.23543919       0.50000000       0.38624761 </v>
    <v>       0.99886690       0.00000000       0.26466879 </v>
    <v>       0.25004800       0.00000000       0.26438676 </v>
    <v>       0.12703588       0.81470113       0.44248937 </v>
    <v>       0.37621279       0.81916033       0.44245378 </v>
    <v>       0.12496298       0.30843831       0.30917795 </v>
    <v>       0.37557751       0.30922204       0.31368450 </v>
    <v>       0.01880762       0.50000000       0.48546631 </v>
    <v>       0.23353803       0.50000000       0.48643094 </v>
    <v>       0.99929877       0.00000000       0.36015736 </v>
    <v>       0.25008712       0.00000000       0.35998099 </v>
    <v>       0.12703588       0.18529887       0.44248937 </v>
    <v>       0.37621279       0.18083967       0.44245378 </v>
    <v>       0.12496298       0.69156169       0.30917795 </v>
    <v>       0.37557751       0.69077796       0.31368450 </v>
    <v>       0.62500000       0.50000000       0.18750000 </v>
    <v>       0.87500000       0.50000000       0.18750000 </v>
    <v>       0.62500000       0.00000000       0.06250000 </v>
    <v>       0.87500000       0.00000000       0.06250000 </v>
    <v>       0.50000000       0.50000000       0.06250000 </v>
    <v>       0.75000000       0.50000000       0.06250000 </v>
    <v>       0.50000000       0.00000000       0.18750000 </v>
    <v>       0.75000000       0.00000000       0.18750000 </v>
    <v>       0.62592482       0.50000000       0.44175077 </v>
    <v>       0.62679772       0.00000000       0.31302075 </v>
    <v>       0.87299466       0.00000000       0.31350503 </v>
    <v>       0.50183249       0.50000000       0.31377422 </v>
    <v>       0.74861410       0.50000000       0.31357067 </v>
    <v>       0.49725382       0.00000000       0.43520893 </v>
    <v>       0.75758307       0.00000000       0.44807243 </v>
    <v>       0.50000000       0.50000000       0.13961000 </v>
    <v>       0.75000000       0.50000000       0.13961000 </v>
    <v>       0.50000000       0.00000000       0.01461000 </v>
    <v>       0.75000000       0.00000000       0.01461000 </v>
    <v>       0.62500000       0.80844000       0.18750000 </v>
    <v>       0.87500000       0.80844000       0.18750000 </v>
    <v>       0.62500000       0.30844000       0.06250000 </v>
    <v>       0.87500000       0.30844000       0.06250000 </v>
    <v>       0.50000000       0.50000000       0.23539000 </v>
    <v>       0.75000000       0.50000000       0.23539000 </v>
    <v>       0.50000000       0.00000000       0.11039000 </v>
    <v>       0.75000000       0.00000000       0.11039000 </v>
    <v>       0.62500000       0.19156000       0.18750000 </v>
    <v>       0.87500000       0.19156000       0.18750000 </v>
    <v>       0.62500000       0.69156000       0.06250000 </v>
    <v>       0.87500000       0.69156000       0.06250000 </v>
    <v>       0.51493906       0.50000000       0.38653191 </v>
    <v>       0.73301094       0.50000000       0.38611259 </v>
    <v>       0.50073979       0.00000000       0.26466470 </v>
    <v>       0.75021926       0.00000000       0.26472688 </v>
    <v>       0.62549050       0.81328490       0.44131082 </v>
    <v>       0.87491444       0.81670569       0.43854525 </v>
    <v>       0.62531700       0.30777083       0.30932694 </v>
    <v>       0.87467132       0.30888321       0.31436392 </v>
    <v>       0.51967266       0.50000000       0.48606080 </v>
    <v>       0.73323518       0.50000000       0.48592587 </v>
    <v>       0.49959763       0.00000000       0.36001425 </v>
    <v>       0.74917933       0.00000000       0.36217786 </v>
    <v>       0.62549050       0.18671510       0.44131082 </v>
    <v>       0.87491444       0.18329431       0.43854525 </v>
    <v>       0.62531700       0.69222917       0.30932694 </v>
    <v>       0.87467132       0.69111679       0.31436392 </v>
    <v>       0.75052152       0.00000000       0.51617949 </v>
   </varray>
  </structure>
  <varray name="forces" >
   <v>      -0.02841137       0.00000000      -0.37768125 </v>
   <v>       0.01194987       0.00000000      -0.39997867 </v>
   <v>      -0.01840590       0.00000000      -0.94032219 </v>
   <v>       0.00493185       0.00000000      -0.91466671 </v>
   <v>       0.00491859       0.00000000       1.56929330 </v>
   <v>      -0.01654372       0.00000000       1.58145795 </v>
   <v>      -0.06243264       0.00000000      -0.14833355 </v>
   <v>      -0.00619342       0.00000000      -0.33163998 </v>
   <v>      -0.06515975       0.00000000      -0.00849300 </v>
   <v>       0.02335527       0.00000000       0.01223548 </v>
   <v>      -0.00558213       0.00000000      -0.01164698 </v>
   <v>       0.00604396       0.00000000      -0.01818899 </v>
   <v>      -0.02744107       0.00000000      -0.00328376 </v>
   <v>      -0.06848597       0.00000000       0.01504079 </v>
   <v>       0.04442276       0.00000000      -0.00349457 </v>
   <v>       0.06642941       0.00000000      -0.15375609 </v>
   <v>      -0.08210270       0.00000000      -0.13113250 </v>
   <v>      -0.01635952       0.00000000       0.81546797 </v>
   <v>      -0.00536808       0.00000000       0.80688003 </v>
   <v>      -0.06864875      -0.03366178      -0.04732381 </v>
   <v>       0.06202303      -0.03850556      -0.00527868 </v>
   <v>      -0.05741310      -0.06482408      -0.66501606 </v>
   <v>       0.05021096      -0.06034423      -0.66393181 </v>
   <v>      -0.34462585       0.00000000       0.47796495 </v>
   <v>       0.34507327       0.00000000       0.42462203 </v>
   <v>       0.00018588       0.00000000       0.20235051 </v>
   <v>       0.01398456       0.00000000       0.23788311 </v>
   <v>      -0.06864875       0.03366178      -0.04732381 </v>
   <v>       0.06202303       0.03850556      -0.00527868 </v>
   <v>      -0.05741310       0.06482408      -0.66501606 </v>
   <v>       0.05021096       0.06034423      -0.66393181 </v>
   <v>       0.02440504       0.00000000       0.02344729 </v>
   <v>      -0.00082882       0.00000000       0.04070644 </v>
   <v>       0.01989425       0.00000000      -0.00264804 </v>
   <v>       0.00693810       0.00000000       0.01529146 </v>
   <v>       0.01491841      -0.00284644      -0.02846216 </v>
   <v>       0.03582032      -0.01447413      -0.01735204 </v>
   <v>       0.01399622       0.01275632       0.00391593 </v>
   <v>      -0.01159414       0.01611573      -0.00597071 </v>
   <v>       0.00918290       0.00000000      -0.00717059 </v>
   <v>       0.01742403       0.00000000      -0.00696809 </v>
   <v>       0.01832271       0.00000000      -0.01254977 </v>
   <v>      -0.03002315       0.00000000       0.06658533 </v>
   <v>       0.01491841       0.00284644      -0.02846216 </v>
   <v>       0.03582032       0.01447413      -0.01735204 </v>
   <v>       0.01399622      -0.01275632       0.00391593 </v>
   <v>      -0.01159414      -0.01611573      -0.00597071 </v>
   <v>      -0.02910398       0.00000000      -0.39357013 </v>
   <v>       0.02461837       0.00000000      -0.40574863 </v>
   <v>      -0.02895637       0.00000000      -0.95056248 </v>
   <v>       0.02163079       0.00000000      -0.92971390 </v>
   <v>       0.00434768       0.00000000       1.56823886 </v>
   <v>      -0.01007232       0.00000000       1.58696489 </v>
   <v>       0.00076848       0.00000000      -0.18468721 </v>
   <v>       0.00310480       0.00000000      -0.22658850 </v>
   <v>       0.05978690       0.00000000       0.02634835 </v>
   <v>      -0.00299185       0.00000000       0.01258579 </v>
   <v>      -0.02441327       0.00000000       0.00104980 </v>
   <v>       0.00999875       0.00000000      -0.03843759 </v>
   <v>       0.00200535       0.00000000      -0.01445141 </v>
   <v>      -0.07275786       0.00000000       0.02735776 </v>
   <v>       0.01937863       0.00000000      -0.05111456 </v>
   <v>       0.07518341       0.00000000      -0.13072335 </v>
   <v>      -0.06032130       0.00000000      -0.14199607 </v>
   <v>      -0.00350171       0.00000000       0.81115854 </v>
   <v>       0.00015067       0.00000000       0.81187391 </v>
   <v>      -0.06276365      -0.03403335      -0.05376459 </v>
   <v>       0.05239376      -0.04192152      -0.02809486 </v>
   <v>      -0.05667727      -0.07079464      -0.66492975 </v>
   <v>       0.04702547      -0.05833223      -0.66905929 </v>
   <v>      -0.29822402       0.00000000       0.43818436 </v>
   <v>       0.32072679       0.00000000       0.48961845 </v>
   <v>      -0.01285454       0.00000000       0.20761167 </v>
   <v>       0.01119616       0.00000000       0.29452250 </v>
   <v>      -0.06276365       0.03403335      -0.05376459 </v>
   <v>       0.05239376       0.04192152      -0.02809486 </v>
   <v>      -0.05667727       0.07079464      -0.66492975 </v>
   <v>       0.04702547       0.05833223      -0.66905929 </v>
   <v>       0.00345214       0.00000000      -0.02326208 </v>
   <v>      -0.01219971       0.00000000       0.00793239 </v>
   <v>      -0.01904863       0.00000000      -0.02423689 </v>
   <v>      -0.00664189       0.00000000       0.00553493 </v>
   <v>       0.01652316       0.01117320       0.00107053 </v>
   <v>       0.01305268      -0.01108682       0.00500289 </v>
   <v>       0.01065937       0.01566851      -0.00519000 </v>
   <v>       0.00151324      -0.00492888       0.00509770 </v>
   <v>      -0.03008574       0.00000000       0.01696227 </v>
   <v>       0.00302857       0.00000000      -0.01746565 </v>
   <v>       0.05874670       0.00000000       0.06142049 </v>
   <v>       0.02389512       0.00000000       0.02130798 </v>
   <v>       0.01652316      -0.01117320       0.00107053 </v>
   <v>       0.01305268       0.01108682       0.00500289 </v>
   <v>       0.01065937      -0.01566851      -0.00519000 </v>
   <v>       0.00151324       0.00492888       0.00509770 </v>
   <v>       0.00757609       0.00000000       0.00518700 </v>
  </varray>
  <varray name="stress" >
   <v>     -15.30605028       0.00000000       0.24713433 </v>
   <v>       0.00000000      -1.56650838       0.00000000 </v>
   <v>       0.24713441       0.00000000      -4.49805679 </v>
  </varray>
  <energy>
   <i name="e_fr_energy">   -598.83895003 </i>
   <i name="e_wo_entrp">   -598.81048323 </i>
   <i name="e_0_energy">     -0.05693358 </i>
  </energy>
  <kpoints>
   <generation param="Gamma">
    <v type="int" name="divisions">       3        3        1 </v>
    <v name="usershift">      0.00000000       0.00000000       0.00000000 </v>
    <v name="genvec1">      0.33333333       0.00000000       0.00000000 </v>
    <v name="genvec2">      0.00000000       0.33333333       0.00000000 </v>
    <v name="genvec3">      0.00000000       0.00000000       1.00000000 </v>
    <v name="shift">      0.00000000       0.00000000       0.00000000 </v>
   </generation>
   <varray name="kpointlist" >
    <v>       0.00000000       0.00000000       0.00000000 </v>
    <v>       0.33333333       0.00000000       0.00000000 </v>
    <v>       0.00000000       0.33333333       0.00000000 </v>
    <v>       0.33333333       0.33333333       0.00000000 </v>
   </varray>
   <varray name="weights" >
    <v>       0.11111111 </v>
    <v>       0.22222222 </v>
    <v>       0.22222222 </v>
    <v>       0.44444444 </v>
   </varray>
  </kpoints>
  <time name="totalsc">  768.76  771.51</time>
 </calculation>
 <calculation>
  <scstep>
   <time name="dav">   15.71   15.76</time>
   <time name="total">   16.58   16.63</time>
   <energy>
    <i name="alphaZ">   1632.74823113 </i>
    <i name="ewald"> 222841.38295555 </i>
    <i name="hartreedc">-267175.40955886 </i>
    <i name="XCdc">   1299.30055571 </i>
    <i name="pawpsdc">  59110.75868133 </i>
    <i name="pawaedc"> -58080.09215931 </i>
    <i name="eentropy">     -0.05694560 </i>
    <i name="bandstr">  -5109.76864918 </i>
    <i name="atom">  44882.29841852 </i>
    <i name="e_fr_energy">   -598.83847071 </i>
    <i name="e_wo_entrp">   -598.78152511 </i>
    <i name="e_0_energy">   -598.80999791 </i>
   </energy>
  </scstep>
  <scstep>
[...]
       <r>   -11.3766     0.0000    65.0000 </r>
       <r>   -11.2684     0.0000    65.0000 </r>
       <r>   -11.1601     0.0000    65.0000 </r>
       <r>   -11.0519     0.0000    65.0000 </r>
       <r>   -10.9436     0.0000    65.0000 </r>
       <r>   -10.8354     0.0000    65.0000 </r>
       <r>   -10.7271     0.0000    65.0000 </r>
       <r>   -10.6188     0.0000    65.0000 </r>
       <r>   -10.5106     0.0000    65.0000 </r>
       <r>   -10.4023     0.0000    65.0000 </r>
       <r>   -10.2941     0.0000    65.0000 </r>
       <r>   -10.1858     0.0000    65.0000 </r>
       <r>   -10.0776     0.0000    65.0000 </r>
       <r>    -9.9693     0.0000    65.0000 </r>
       <r>    -9.8610     0.0007    65.0001 </r>
       <r>    -9.7528     0.7144    65.0774 </r>
       <r>    -9.6445     5.0361    65.6226 </r>
       <r>    -9.5363     3.4191    65.9927 </r>
       <r>    -9.4280     3.3733    66.3579 </r>
       <r>    -9.3198    11.0923    67.5587 </r>
       <r>    -9.2115     8.3502    68.4627 </r>
       <r>    -9.1033     6.3848    69.1539 </r>
       <r>    -8.9950    12.2390    70.4789 </r>
       <r>    -8.8867    10.7749    71.6453 </r>
       <r>    -8.7785    18.6208    73.6612 </r>
       <r>    -8.6702    21.4910    75.9877 </r>
       <r>    -8.5620    11.6063    77.2442 </r>
       <r>    -8.4537    32.6278    80.7764 </r>
       <r>    -8.3455    28.6945    83.8827 </r>
       <r>    -8.2372    25.2381    86.6149 </r>
       <r>    -8.1289    47.0442    91.7078 </r>
       <r>    -8.0207    55.9896    97.7690 </r>
       <r>    -7.9124    45.5379   102.6988 </r>
       <r>    -7.8042    38.2920   106.8442 </r>
       <r>    -7.6959    34.1072   110.5365 </r>
       <r>    -7.5877    25.3367   113.2794 </r>
       <r>    -7.4794    35.4046   117.1122 </r>
       <r>    -7.3711    30.6971   120.4354 </r>
       <r>    -7.2629    30.6587   123.7544 </r>
       <r>    -7.1546    25.9038   126.5587 </r>
       <r>    -7.0464    25.1903   129.2857 </r>
       <r>    -6.9381    22.4103   131.7117 </r>
       <r>    -6.8299    14.5559   133.2875 </r>
       <r>    -6.7216    13.4829   134.7471 </r>
       <r>    -6.6133    25.7038   137.5298 </r>
       <r>    -6.5051    35.7422   141.3991 </r>
       <r>    -6.3968    34.1903   145.1004 </r>
       <r>    -6.2886    35.3989   148.9326 </r>
       <r>    -6.1803    29.3917   152.1144 </r>
       <r>    -6.0721    28.7032   155.2218 </r>
       <r>    -5.9638    34.9557   159.0060 </r>
       <r>    -5.8555    42.3967   163.5957 </r>
       <r>    -5.7473    39.4874   167.8705 </r>
       <r>    -5.6390    41.6218   172.3763 </r>
       <r>    -5.5308    36.1728   176.2923 </r>
       <r>    -5.4225    32.0294   179.7597 </r>
       <r>    -5.3143    35.3669   183.5884 </r>
       <r>    -5.2060    35.0676   187.3847 </r>
       <r>    -5.0978    34.9916   191.1728 </r>
       <r>    -4.9895    31.8291   194.6185 </r>
       <r>    -4.8812    41.0095   199.0580 </r>
       <r>    -4.7730    33.1958   202.6517 </r>
       <r>    -4.6647    29.9751   205.8967 </r>
       <r>    -4.5565    27.2471   208.8464 </r>
       <r>    -4.4482    29.3719   212.0261 </r>
       <r>    -4.3400    25.7091   214.8093 </r>
       <r>    -4.2317    26.0662   217.6311 </r>
       <r>    -4.1234    31.6490   221.0573 </r>
       <r>    -4.0152    34.2909   224.7696 </r>
       <r>    -3.9069    28.2529   227.8281 </r>
       <r>    -3.7987    28.4437   230.9073 </r>
       <r>    -3.6904    24.6842   233.5796 </r>
       <r>    -3.5822    17.5923   235.4841 </r>
       <r>    -3.4739    19.5973   237.6056 </r>
       <r>    -3.3656    31.1482   240.9776 </r>
       <r>    -3.2574    31.9627   244.4378 </r>
       <r>    -3.1491    23.9991   247.0358 </r>
       <r>    -3.0409    24.6440   249.7037 </r>
       <r>    -2.9326    29.0449   252.8480 </r>
       <r>    -2.8244    20.9734   255.1185 </r>
       <r>    -2.7161    19.7444   257.2560 </r>
       <r>    -2.6078    17.3366   259.1328 </r>
       <r>    -2.4996    22.9883   261.6215 </r>
       <r>    -2.3913    32.1467   265.1016 </r>
       <r>    -2.2831    46.0251   270.0841 </r>
       <r>    -2.1748    55.1287   276.0521 </r>
       <r>    -2.0666    47.0166   281.1420 </r>
       <r>    -1.9583    56.4138   287.2492 </r>
       <r>    -1.8500    46.4676   292.2796 </r>
       <r>    -1.7418    25.5325   295.0437 </r>
       <r>    -1.6335    34.5707   298.7862 </r>
       <r>    -1.5253    31.7917   302.2279 </r>
       <r>    -1.4170    27.2327   305.1760 </r>
       <r>    -1.3088    24.8214   307.8631 </r>
       <r>    -1.2005    29.7316   311.0817 </r>
       <r>    -1.0922    30.8049   314.4166 </r>
       <r>    -0.9840    24.1890   317.0352 </r>
       <r>    -0.8757    26.4543   319.8990 </r>
       <r>    -0.7675    29.6016   323.1036 </r>
       <r>    -0.6592    23.0885   325.6031 </r>
       <r>    -0.5510    28.2055   328.6565 </r>
       <r>    -0.4427    24.8984   331.3519 </r>
       <r>    -0.3345    36.9766   335.3549 </r>
       <r>    -0.2262    35.8140   339.2320 </r>
       <r>    -0.1179    28.3847   342.3049 </r>
       <r>    -0.0097    29.5444   345.5032 </r>
       <r>     0.0986    32.1161   348.9800 </r>
       <r>     0.2068    21.2301   351.2783 </r>
       <r>     0.3151    18.5638   353.2880 </r>
       <r>     0.4233    19.8646   355.4385 </r>
       <r>     0.5316    16.3158   357.2048 </r>
       <r>     0.6399     8.7013   358.1467 </r>
       <r>     0.7481     3.0793   358.4801 </r>
       <r>     0.8564     5.6563   359.0924 </r>
       <r>     0.9646     9.3480   360.1044 </r>
       <r>     1.0729     8.2582   360.9984 </r>
       <r>     1.1811     5.9383   361.6413 </r>
       <r>     1.2894     6.2425   362.3171 </r>
       <r>     1.3977    16.5589   364.1097 </r>
       <r>     1.5059    18.3643   366.0978 </r>
       <r>     1.6142    12.8553   367.4894 </r>
       <r>     1.7224    18.3653   369.4776 </r>
       <r>     1.8307    14.3343   371.0294 </r>
       <r>     1.9389    16.7434   372.8420 </r>
       <r>     2.0472    16.8891   374.6703 </r>
       <r>     2.1555    16.1258   376.4160 </r>
       <r>     2.2637    19.5568   378.5332 </r>
       <r>     2.3720    11.6716   379.7967 </r>
       <r>     2.4802    16.2309   381.5539 </r>
       <r>     2.5885    16.1995   383.3076 </r>
       <r>     2.6967    19.6182   385.4314 </r>
       <r>     2.8050    18.3288   387.4156 </r>
       <r>     2.9133    26.2179   390.2538 </r>
       <r>     3.0215    23.7742   392.8276 </r>
       <r>     3.1298    21.1428   395.1164 </r>
       <r>     3.2380    21.6182   397.4567 </r>
       <r>     3.3463    16.1707   399.2073 </r>
       <r>     3.4545    22.4880   401.6418 </r>
       <r>     3.5628    20.3431   403.8441 </r>
       <r>     3.6710    13.0377   405.2555 </r>
       <r>     3.7793     8.2123   406.1445 </r>
       <r>     3.8876    10.5105   407.2824 </r>
       <r>     3.9958     6.5775   407.9944 </r>
       <r>     4.1041     0.0516   408.0000 </r>
       <r>     4.2123     0.1626   408.0176 </r>
       <r>     4.3206     2.8617   408.3274 </r>
       <r>     4.4288     6.3446   409.0142 </r>
       <r>     4.5371    10.8578   410.1897 </r>
       <r>     4.6454    11.1668   411.3986 </r>
       <r>     4.7536     5.3231   411.9748 </r>
       <r>     4.8619     1.3708   412.1232 </r>
       <r>     4.9701     5.7079   412.7411 </r>
       <r>     5.0784     8.6659   413.6793 </r>
       <r>     5.1866     3.3780   414.0450 </r>
       <r>     5.2949     1.9992   414.2614 </r>
       <r>     5.4032     4.8096   414.7821 </r>
       <r>     5.5114     4.2280   415.2398 </r>
       <r>     5.6197     7.1820   416.0173 </r>
       <r>     5.7279     2.6011   416.2989 </r>
       <r>     5.8362     8.0564   417.1710 </r>
       <r>     5.9444     7.3016   417.9615 </r>
       <r>     6.0527     8.4702   418.8784 </r>
       <r>     6.1610     5.8495   419.5117 </r>
       <r>     6.2692    12.0205   420.8130 </r>
       <r>     6.3775     6.6378   421.5316 </r>
       <r>     6.4857     6.4512   422.2300 </r>
       <r>     6.5940     9.8125   423.2922 </r>
       <r>     6.7022    10.7150   424.4522 </r>
       <r>     6.8105    10.8208   425.6236 </r>
       <r>     6.9188     9.3892   426.6401 </r>
       <r>     7.0270     8.4063   427.5501 </r>
       <r>     7.1353    11.6568   428.8120 </r>
       <r>     7.2435    14.0004   430.3277 </r>
       <r>     7.3518    14.8403   431.9343 </r>
       <r>     7.4600     6.8061   432.6711 </r>
       <r>     7.5683    10.6402   433.8229 </r>
       <r>     7.6766    15.0226   435.4492 </r>
       <r>     7.7848    14.9687   437.0697 </r>
       <r>     7.8931     9.8357   438.1345 </r>
       <r>     8.0013     4.4799   438.6195 </r>
       <r>     8.1096     4.4806   439.1045 </r>
       <r>     8.2178     4.5739   439.5997 </r>
       <r>     8.3261     3.6429   439.9940 </r>
       <r>     8.4343     0.0550   440.0000 </r>
       <r>     8.5426     0.0000   440.0000 </r>
       <r>     8.6509     0.0000   440.0000 </r>
       <r>     8.7591     0.0000   440.0000 </r>
       <r>     8.8674     0.0000   440.0000 </r>
       <r>     8.9756     0.0000   440.0000 </r>
       <r>     9.0839     0.0000   440.0000 </r>
       <r>     9.1921     0.0000   440.0000 </r>
       <r>     9.3004     0.0000   440.0000 </r>
       <r>     9.4087     0.0000   440.0000 </r>
       <r>     9.5169     0.0000   440.0000 </r>
       <r>     9.6252     0.0000   440.0000 </r>
       <r>     9.7334     0.0000   440.0000 </r>
      </set>
     </set>
    </array>
   </total>
  </dos>
 </calculation>
 <structure name="finalpos" >
  <crystal>
   <varray name="basis" >
    <v>      12.80853200       0.00000000       0.00000000 </v>
    <v>       0.00000000       6.47024300       0.00000000 </v>
    <v>       0.00000000       0.00000000      25.88097200 </v>
   </varray>
   <i name="volume">   2144.86781344 </i>
   <varray name="rec_basis" >
    <v>       0.07807296       0.00000000       0.00000000 </v>
    <v>       0.00000000       0.15455370       0.00000000 </v>
    <v>       0.00000000       0.00000000       0.03863843 </v>
   </varray>
  </crystal>
  <varray name="positions" >
   <v>       0.12500000       0.50000000       0.18750000 </v>
   <v>       0.37500000       0.50000000       0.18750000 </v>
   <v>       0.12500000       0.00000000       0.06250000 </v>
   <v>       0.37500000       0.00000000       0.06250000 </v>
   <v>       0.00000000       0.50000000       0.06250000 </v>
   <v>       0.25000000       0.50000000       0.06250000 </v>
   <v>       0.00000000       0.00000000       0.18750000 </v>
   <v>       0.25000000       0.00000000       0.18750000 </v>
   <v>       0.12707847       0.50000000       0.44220101 </v>
   <v>       0.12445708       0.00000000       0.31198785 </v>
   <v>       0.37533373       0.00000000       0.31200086 </v>
   <v>       0.00164430       0.50000000       0.31378983 </v>
   <v>       0.24877575       0.50000000       0.31342515 </v>
   <v>       0.99666296       0.00000000       0.43534678 </v>
   <v>       0.25665283       0.00000000       0.43538169 </v>
   <v>       0.00000000       0.50000000       0.13961000 </v>
   <v>       0.25000000       0.50000000       0.13961000 </v>
   <v>       0.00000000       0.00000000       0.01461000 </v>
   <v>       0.25000000       0.00000000       0.01461000 </v>
   <v>       0.12500000       0.80844000       0.18750000 </v>
   <v>       0.37500000       0.80844000       0.18750000 </v>
   <v>       0.12500000       0.30844000       0.06250000 </v>
   <v>       0.37500000       0.30844000       0.06250000 </v>
   <v>       0.00000000       0.50000000       0.23539000 </v>
   <v>       0.25000000       0.50000000       0.23539000 </v>
   <v>       0.00000000       0.00000000       0.11039000 </v>
   <v>       0.25000000       0.00000000       0.11039000 </v>
   <v>       0.12500000       0.19156000       0.18750000 </v>
   <v>       0.37500000       0.19156000       0.18750000 </v>
   <v>       0.12500000       0.69156000       0.06250000 </v>
   <v>       0.37500000       0.69156000       0.06250000 </v>
   <v>       0.01662344       0.50000000       0.38635857 </v>
   <v>       0.23543919       0.50000000       0.38624761 </v>
   <v>       0.99886690       0.00000000       0.26466879 </v>
   <v>       0.25004800       0.00000000       0.26438676 </v>
   <v>       0.12703588       0.81470113       0.44248937 </v>
   <v>       0.37621279       0.81916033       0.44245378 </v>
   <v>       0.12496298       0.30843831       0.30917795 </v>
   <v>       0.37557751       0.30922204       0.31368450 </v>
   <v>       0.01880762       0.50000000       0.48546631 </v>
   <v>       0.23353803       0.50000000       0.48643094 </v>
   <v>       0.99929877       0.00000000       0.36015736 </v>
   <v>       0.25008712       0.00000000       0.35998099 </v>
   <v>       0.12703588       0.18529887       0.44248937 </v>
   <v>       0.37621279       0.18083967       0.44245378 </v>
   <v>       0.12496298       0.69156169       0.30917795 </v>
   <v>       0.37557751       0.69077796       0.31368450 </v>
   <v>       0.62500000       0.50000000       0.18750000 </v>
   <v>       0.87500000       0.50000000       0.18750000 </v>
   <v>       0.62500000       0.00000000       0.06250000 </v>
   <v>       0.87500000       0.00000000       0.06250000 </v>
   <v>       0.50000000       0.50000000       0.06250000 </v>
   <v>       0.75000000       0.50000000       0.06250000 </v>
   <v>       0.50000000       0.00000000       0.18750000 </v>
   <v>       0.75000000       0.00000000       0.18750000 </v>
   <v>       0.62592482       0.50000000       0.44175077 </v>
   <v>       0.62679772       0.00000000       0.31302075 </v>
   <v>       0.87299466       0.00000000       0.31350503 </v>
   <v>       0.50183249       0.50000000       0.31377422 </v>
   <v>       0.74861410       0.50000000       0.31357067 </v>
   <v>       0.49725382       0.00000000       0.43520893 </v>
   <v>       0.75758307       0.00000000       0.44807243 </v>
   <v>       0.50000000       0.50000000       0.13961000 </v>
   <v>       0.75000000       0.50000000       0.13961000 </v>
   <v>       0.50000000       0.00000000       0.01461000 </v>
   <v>       0.75000000       0.00000000       0.01461000 </v>
   <v>       0.62500000       0.80844000       0.18750000 </v>
   <v>       0.87500000       0.80844000       0.18750000 </v>
   <v>       0.62500000       0.30844000       0.06250000 </v>
   <v>       0.87500000       0.30844000       0.06250000 </v>
   <v>       0.50000000       0.50000000       0.23539000 </v>
   <v>       0.75000000       0.50000000       0.23539000 </v>
   <v>       0.50000000       0.00000000       0.11039000 </v>
   <v>       0.75000000       0.00000000       0.11039000 </v>
   <v>       0.62500000       0.19156000       0.18750000 </v>
   <v>       0.87500000       0.19156000       0.18750000 </v>
   <v>       0.62500000       0.69156000       0.06250000 </v>
   <v>       0.87500000       0.69156000       0.06250000 </v>
   <v>       0.51493906       0.50000000       0.38653191 </v>
   <v>       0.73301094       0.50000000       0.38611259 </v>
   <v>       0.50073979       0.00000000       0.26466470 </v>
   <v>       0.75021926       0.00000000       0.26472688 </v>
   <v>       0.62549050       0.81328490       0.44131082 </v>
   <v>       0.87491444       0.81670569       0.43854525 </v>
   <v>       0.62531700       0.30777083       0.30932694 </v>
   <v>       0.87467132       0.30888321       0.31436392 </v>
   <v>       0.51967266       0.50000000       0.48606080 </v>
   <v>       0.73323518       0.50000000       0.48592587 </v>
   <v>       0.49959763       0.00000000       0.36001425 </v>
   <v>       0.74917933       0.00000000       0.36217786 </v>
   <v>       0.62549050       0.18671510       0.44131082 </v>
   <v>       0.87491444       0.18329431       0.43854525 </v>
   <v>       0.62531700       0.69222917       0.30932694 </v>
   <v>       0.87467132       0.69111679       0.31436392 </v>
   <v>       0.75052152       0.00000000       0.51559991 </v>
  </varray>
  <varray name="selective"  type="logical" >
   <v type="logical" >  F  F  F </v>
   <v type="logical" >  F  F  F </v>
   <v type="logical" >  F  F  F </v>
   <v type="logical" >  F  F  F </v>
   <v type="logical" >  F  F  F </v>
   <v type="logical" >  F  F  F </v>
   <v type="logical" >  F  F  F </v>
   <v type="logical" >  F  F  F </v>
   <v type="logical" >  F  F  F </v>
   <v type="logical" >  F  F  F </v>
   <v type="logical" >  F  F  F </v>
   <v type="logical" >  F  F  F </v>
   <v type="logical" >  F  F  F </v>
   <v type="logical" >  F  F  F </v>
   <v type="logical" >  F  F  F </v>
   <v type="logical" >  F  F  F </v>
   <v type="logical" >  F  F  F </v>
   <v type="logical" >  F  F  F </v>
   <v type="logical" >  F  F  F </v>
   <v type="logical" >  F  F  F </v>
   <v type="logical" >  F  F  F </v>
   <v type="logical" >  F  F  F </v>
   <v type="logical" >  F  F  F </v>
   <v type="logical" >  F  F  F </v>
   <v type="logical" >  F  F  F </v>
   <v type="logical" >  F  F  F </v>
   <v type="logical" >  F  F  F </v>
   <v type="logical" >  F  F  F </v>
   <v type="logical" >  F  F  F </v>
   <v type="logical" >  F  F  F </v>
   <v type="logical" >  F  F  F </v>
   <v type="logical" >  F  F  F </v>
   <v type="logical" >  F  F  F </v>
   <v type="logical" >  F  F  F </v>
   <v type="logical" >  F  F  F </v>
   <v type="logical" >  F  F  F </v>
   <v type="logical" >  F  F  F </v>
   <v type="logical" >  F  F  F </v>
   <v type="logical" >  F  F  F </v>
   <v type="logical" >  F  F  F </v>
   <v type="logical" >  F  F  F </v>
   <v type="logical" >  F  F  F </v>
   <v type="logical" >  F  F  F </v>
   <v type="logical" >  F  F  F </v>
   <v type="logical" >  F  F  F </v>
   <v type="logical" >  F  F  F </v>
   <v type="logical" >  F  F  F </v>
   <v type="logical" >  F  F  F </v>
   <v type="logical" >  F  F  F </v>
   <v type="logical" >  F  F  F </v>
   <v type="logical" >  F  F  F </v>
   <v type="logical" >  F  F  F </v>
   <v type="logical" >  F  F  F </v>
   <v type="logical" >  F  F  F </v>
   <v type="logical" >  F  F  F </v>
   <v type="logical" >  F  F  F </v>
   <v type="logical" >  F  F  F </v>
   <v type="logical" >  F  F  F </v>
   <v type="logical" >  F  F  F </v>
   <v type="logical" >  F  F  F </v>
   <v type="logical" >  F  F  F </v>
   <v type="logical" >  F  F  F </v>
   <v type="logical" >  F  F  F </v>
   <v type="logical" >  F  F  F </v>
   <v type="logical" >  F  F  F </v>
   <v type="logical" >  F  F  F </v>
   <v type="logical" >  F  F  F </v>
   <v type="logical" >  F  F  F </v>
   <v type="logical" >  F  F  F </v>
   <v type="logical" >  F  F  F </v>
   <v type="logical" >  F  F  F </v>
   <v type="logical" >  F  F  F </v>
   <v type="logical" >  F  F  F </v>
   <v type="logical" >  F  F  F </v>
   <v type="logical" >  F  F  F </v>
   <v type="logical" >  F  F  F </v>
   <v type="logical" >  F  F  F </v>
   <v type="logical" >  F  F  F </v>
   <v type="logical" >  F  F  F </v>
   <v type="logical" >  F  F  F </v>
   <v type="logical" >  F  F  F </v>
   <v type="logical" >  F  F  F </v>
   <v type="logical" >  F  F  F </v>
   <v type="logical" >  F  F  F </v>
   <v type="logical" >  F  F  F </v>
   <v type="logical" >  F  F  F </v>
   <v type="logical" >  F  F  F </v>
   <v type="logical" >  F  F  F </v>
   <v type="logical" >  F  F  F </v>
   <v type="logical" >  F  F  F </v>
   <v type="logical" >  F  F  F </v>
   <v type="logical" >  F  F  F </v>
   <v type="logical" >  F  F  F </v>
   <v type="logical" >  F  F  F </v>
   <v type="logical" >  T  T  T </v>
  </varray>
  <nose>
   <v>      -3.00000000       0.00000000       0.00010000       0.00010000 </v>
  </nose>
 </structure>
</modeling>
