 vasp.5.4.4.18Apr17-6-g9f103f2a35 (build Feb 25 2019 10:51:38) complex          
  
 executed on             LinuxIFC date 2022.09.20  17:26:17
 running on   40 total cores
 distrk:  each k-point on   40 cores,    1 groups
 distr:  one band on NCORES_PER_BAND=  10 cores,    4 groups


--------------------------------------------------------------------------------------------------------


 INCAR:
 POTCAR:    PAW_PBE Ir 06Sep2000                  
 POTCAR:    PAW_PBE O 08Apr2002                   
 POTCAR:    PAW_PBE Ir 06Sep2000                  
 POTCAR:    PAW_PBE O 08Apr2002                   
 POTCAR:    PAW_PBE Ir 06Sep2000                  
   VRHFIN =Ir: s1d8                                                             
   LEXCH  = PE                                                                  
   EATOM  =   560.1833 eV,   41.1723 Ry                                         
                                                                                
   TITEL  = PAW_PBE Ir 06Sep2000                                                
   LULTRA =        F    use ultrasoft PP ?                                      
   IUNSCR =        1    unscreen: 0-lin 1-nonlin 2-no                           
   RPACOR =    2.250    partial core radius                                     
   POMASS =  192.220; ZVAL   =    9.000    mass and valenz                      
   RCORE  =    2.600    outmost cutoff radius                                   
   RWIGS  =    2.690; RWIGS  =    1.423    wigner-seitz radius (au A)           
   ENMAX  =  210.864; ENMIN  =  158.148 eV                                      
   RCLOC  =    1.857    cutoff for local pot                                    
   LCOR   =        T    correct aug charges                                     
   LPAW   =        T    paw PP                                                  
   EAUG   =  318.962                                                            
   DEXC   =    0.000                                                            
   RMAX   =    2.667    core radius for proj-oper                               
   RAUG   =    1.300    factor for augmentation sphere                          
   RDEP   =    2.748    radius for radial grids                                 
   RDEPT  =    2.300    core radius for aug-charge                              
                                                                                
   Atomic configuration                                                         
   16 entries                                                                   
     n  l   j            E        occ.                                          
     1  0  0.50    -76100.0449   2.0000                                         
     2  0  0.50    -13308.1683   2.0000                                         
     2  1  1.50    -11558.0021   6.0000                                         
     3  0  0.50     -3110.7274   2.0000                                         
     3  1  1.50     -2599.2109   6.0000                                         
     3  2  2.50     -2037.1515  10.0000                                         
     4  0  0.50      -661.6001   2.0000                                         
     4  1  1.50      -493.8981   6.0000                                         
     4  2  2.50      -288.1909  10.0000                                         
     4  3  3.50       -59.5718  14.0000                                         
     5  0  0.50       -95.3879   2.0000                                         
     5  1  1.50       -52.2747   6.0000                                         
     5  2  2.50        -5.4180   8.0000                                         
     6  0  0.50        -5.5479   1.0000                                         
     6  1  1.50        -6.8029   0.0000                                         
     5  3  2.50        -1.3606   0.0000                                         
   Description                                                                  
     l       E           TYP  RCUT    TYP  RCUT                                 
     2     -5.4179967     23  2.600                                             
     2     -6.7785793     23  2.600                                             
     0     -5.5478636     23  2.600                                             
     0      2.2542272     23  2.600                                             
     1     -2.7211652     23  2.600                                             
     1     20.4087390     23  2.600                                             
  local pseudopotential read in
  partial core-charges read in
  partial kinetic energy density read in
  atomic valenz-charges read in
  non local Contribution for L=           2  read in
    real space projection operators read in
  non local Contribution for L=           2  read in
    real space projection operators read in
  non local Contribution for L=           0  read in
    real space projection operators read in
  non local Contribution for L=           0  read in
    real space projection operators read in
  non local Contribution for L=           1  read in
    real space projection operators read in
  non local Contribution for L=           1  read in
    real space projection operators read in
    PAW grid and wavefunctions read in
 
   number of l-projection  operators is LMAX  =           6
   number of lm-projection operators is LMMAX =          18
 
 POTCAR:    PAW_PBE O 08Apr2002                   
   VRHFIN =O: s2p4                                                              
   LEXCH  = PE                                                                  
   EATOM  =   432.3788 eV,   31.7789 Ry                                         
                                                                                
   TITEL  = PAW_PBE O 08Apr2002                                                 
   LULTRA =        F    use ultrasoft PP ?                                      
   IUNSCR =        1    unscreen: 0-lin 1-nonlin 2-no                           
   RPACOR =    1.200    partial core radius                                     
   POMASS =   16.000; ZVAL   =    6.000    mass and valenz                      
   RCORE  =    1.520    outmost cutoff radius                                   
   RWIGS  =    1.550; RWIGS  =    0.820    wigner-seitz radius (au A)           
   ENMAX  =  400.000; ENMIN  =  300.000 eV                                      
   ICORE  =        2    local potential                                         
   LCOR   =        T    correct aug charges                                     
   LPAW   =        T    paw PP                                                  
   EAUG   =  605.392                                                            
   DEXC   =    0.000                                                            
   RMAX   =    1.553    core radius for proj-oper                               
   RAUG   =    1.300    factor for augmentation sphere                          
   RDEP   =    1.550    radius for radial grids                                 
   RDEPT  =    1.329    core radius for aug-charge                              
                                                                                
   Atomic configuration                                                         
    4 entries                                                                   
     n  l   j            E        occ.                                          
     1  0  0.50      -514.6923   2.0000                                         
     2  0  0.50       -23.9615   2.0000                                         
     2  1  0.50        -9.0305   4.0000                                         
     3  2  1.50        -9.5241   0.0000                                         
   Description                                                                  
     l       E           TYP  RCUT    TYP  RCUT                                 
     0    -23.9615318     23  1.200                                             
     0     -9.5240782     23  1.200                                             
     1     -9.0304911     23  1.520                                             
     1      8.1634956     23  1.520                                             
     2     -9.5240782      7  1.500                                             
  local pseudopotential read in
  partial core-charges read in
  partial kinetic energy density read in
  kinetic energy density of atom read in
  atomic valenz-charges read in
  non local Contribution for L=           0  read in
    real space projection operators read in
  non local Contribution for L=           0  read in
    real space projection operators read in
  non local Contribution for L=           1  read in
    real space projection operators read in
  non local Contribution for L=           1  read in
    real space projection operators read in
    PAW grid and wavefunctions read in
 
   number of l-projection  operators is LMAX  =           4
   number of lm-projection operators is LMMAX =           8
 
 POTCAR:    PAW_PBE Ir 06Sep2000                  
   VRHFIN =Ir: s1d8                                                             
   LEXCH  = PE                                                                  
   EATOM  =   560.1833 eV,   41.1723 Ry                                         
                                                                                
   TITEL  = PAW_PBE Ir 06Sep2000                                                
   LULTRA =        F    use ultrasoft PP ?                                      
   IUNSCR =        1    unscreen: 0-lin 1-nonlin 2-no                           
   RPACOR =    2.250    partial core radius                                     
   POMASS =  192.220; ZVAL   =    9.000    mass and valenz                      
   RCORE  =    2.600    outmost cutoff radius                                   
   RWIGS  =    2.690; RWIGS  =    1.423    wigner-seitz radius (au A)           
   ENMAX  =  210.864; ENMIN  =  158.148 eV                                      
   RCLOC  =    1.857    cutoff for local pot                                    
   LCOR   =        T    correct aug charges                                     
   LPAW   =        T    paw PP                                                  
   EAUG   =  318.962                                                            
   DEXC   =    0.000                                                            
   RMAX   =    2.667    core radius for proj-oper                               
   RAUG   =    1.300    factor for augmentation sphere                          
   RDEP   =    2.748    radius for radial grids                                 
   RDEPT  =    2.300    core radius for aug-charge                              
                                                                                
   Atomic configuration                                                         
   16 entries                                                                   
     n  l   j            E        occ.                                          
     1  0  0.50    -76100.0449   2.0000                                         
     2  0  0.50    -13308.1683   2.0000                                         
     2  1  1.50    -11558.0021   6.0000                                         
     3  0  0.50     -3110.7274   2.0000                                         
     3  1  1.50     -2599.2109   6.0000                                         
     3  2  2.50     -2037.1515  10.0000                                         
     4  0  0.50      -661.6001   2.0000                                         
     4  1  1.50      -493.8981   6.0000                                         
     4  2  2.50      -288.1909  10.0000                                         
     4  3  3.50       -59.5718  14.0000                                         
     5  0  0.50       -95.3879   2.0000                                         
     5  1  1.50       -52.2747   6.0000                                         
     5  2  2.50        -5.4180   8.0000                                         
     6  0  0.50        -5.5479   1.0000                                         
     6  1  1.50        -6.8029   0.0000                                         
     5  3  2.50        -1.3606   0.0000                                         
   Description                                                                  
     l       E           TYP  RCUT    TYP  RCUT                                 
     2     -5.4179967     23  2.600                                             
     2     -6.7785793     23  2.600                                             
     0     -5.5478636     23  2.600                                             
     0      2.2542272     23  2.600                                             
     1     -2.7211652     23  2.600                                             
     1     20.4087390     23  2.600                                             
  local pseudopotential read in
  partial core-charges read in
  partial kinetic energy density read in
  atomic valenz-charges read in
  non local Contribution for L=           2  read in
    real space projection operators read in
  non local Contribution for L=           2  read in
    real space projection operators read in
  non local Contribution for L=           0  read in
    real space projection operators read in
  non local Contribution for L=           0  read in
    real space projection operators read in
  non local Contribution for L=           1  read in
    real space projection operators read in
  non local Contribution for L=           1  read in
    real space projection operators read in
    PAW grid and wavefunctions read in
 
   number of l-projection  operators is LMAX  =           6
   number of lm-projection operators is LMMAX =          18
 
 POTCAR:    PAW_PBE O 08Apr2002                   
   VRHFIN =O: s2p4                                                              
   LEXCH  = PE                                                                  
   EATOM  =   432.3788 eV,   31.7789 Ry                                         
                                                                                
   TITEL  = PAW_PBE O 08Apr2002                                                 
   LULTRA =        F    use ultrasoft PP ?                                      
   IUNSCR =        1    unscreen: 0-lin 1-nonlin 2-no                           
   RPACOR =    1.200    partial core radius                                     
   POMASS =   16.000; ZVAL   =    6.000    mass and valenz                      
   RCORE  =    1.520    outmost cutoff radius                                   
   RWIGS  =    1.550; RWIGS  =    0.820    wigner-seitz radius (au A)           
   ENMAX  =  400.000; ENMIN  =  300.000 eV                                      
   ICORE  =        2    local potential                                         
   LCOR   =        T    correct aug charges                                     
   LPAW   =        T    paw PP                                                  
   EAUG   =  605.392                                                            
   DEXC   =    0.000                                                            
   RMAX   =    1.553    core radius for proj-oper                               
   RAUG   =    1.300    factor for augmentation sphere                          
   RDEP   =    1.550    radius for radial grids                                 
   RDEPT  =    1.329    core radius for aug-charge                              
                                                                                
   Atomic configuration                                                         
    4 entries                                                                   
     n  l   j            E        occ.                                          
     1  0  0.50      -514.6923   2.0000                                         
     2  0  0.50       -23.9615   2.0000                                         
     2  1  0.50        -9.0305   4.0000                                         
     3  2  1.50        -9.5241   0.0000                                         
   Description                                                                  
     l       E           TYP  RCUT    TYP  RCUT                                 
     0    -23.9615318     23  1.200                                             
     0     -9.5240782     23  1.200                                             
     1     -9.0304911     23  1.520                                             
     1      8.1634956     23  1.520                                             
     2     -9.5240782      7  1.500                                             
  local pseudopotential read in
  partial core-charges read in
  partial kinetic energy density read in
  kinetic energy density of atom read in
  atomic valenz-charges read in
  non local Contribution for L=           0  read in
    real space projection operators read in
  non local Contribution for L=           0  read in
    real space projection operators read in
  non local Contribution for L=           1  read in
    real space projection operators read in
  non local Contribution for L=           1  read in
    real space projection operators read in
    PAW grid and wavefunctions read in
 
   number of l-projection  operators is LMAX  =           4
   number of lm-projection operators is LMMAX =           8
 
 Optimization of the real space projectors (new method)

 maximal supplied QI-value         = 14.36
 optimisation between [QCUT,QGAM] = [ 11.35, 22.84] = [ 36.05,146.02] Ry 
 Optimized for a Real-space Cutoff    1.52 Angstroem

   l    n(q)    QCUT    max X(q) W(low)/X(q) W(high)/X(q)  e(spline) 
   2      9    11.346   134.116    0.47E-03    0.13E-03    0.92E-06
   2      9    11.346   130.192    0.47E-03    0.13E-03    0.92E-06
   0     10    11.346    60.310    0.74E-04    0.13E-03    0.69E-06
   0     10    11.346    39.218    0.68E-04    0.12E-03    0.65E-06
   1     10    11.346    18.439    0.15E-03    0.34E-04    0.20E-06
   1     10    11.346    12.760    0.12E-03    0.31E-04    0.16E-06
 Optimization of the real space projectors (new method)

 maximal supplied QI-value         = 24.76
 optimisation between [QCUT,QGAM] = [ 11.39, 22.77] = [ 36.31,145.25] Ry 
 Optimized for a Real-space Cutoff    1.00 Angstroem

   l    n(q)    QCUT    max X(q) W(low)/X(q) W(high)/X(q)  e(spline) 
   0      7    11.387    20.381    0.39E-03    0.13E-02    0.15E-06
   0      7    11.387    15.268    0.42E-03    0.14E-02    0.17E-06
   1      6    11.387     5.964    0.41E-03    0.11E-02    0.17E-06
   1      6    11.387     5.382    0.39E-03    0.87E-03    0.15E-06
 Optimization of the real space projectors (new method)

 maximal supplied QI-value         = 14.36
 optimisation between [QCUT,QGAM] = [ 11.35, 22.84] = [ 36.05,146.02] Ry 
 Optimized for a Real-space Cutoff    1.52 Angstroem

   l    n(q)    QCUT    max X(q) W(low)/X(q) W(high)/X(q)  e(spline) 
   2      9    11.346   134.116    0.47E-03    0.13E-03    0.92E-06
   2      9    11.346   130.192    0.47E-03    0.13E-03    0.92E-06
   0     10    11.346    60.310    0.74E-04    0.13E-03    0.69E-06
   0     10    11.346    39.218    0.68E-04    0.12E-03    0.65E-06
   1     10    11.346    18.439    0.15E-03    0.34E-04    0.20E-06
   1     10    11.346    12.760    0.12E-03    0.31E-04    0.16E-06
 Optimization of the real space projectors (new method)

 maximal supplied QI-value         = 24.76
 optimisation between [QCUT,QGAM] = [ 11.39, 22.77] = [ 36.31,145.25] Ry 
 Optimized for a Real-space Cutoff    1.00 Angstroem

   l    n(q)    QCUT    max X(q) W(low)/X(q) W(high)/X(q)  e(spline) 
   0      7    11.387    20.381    0.39E-03    0.13E-02    0.15E-06
   0      7    11.387    15.268    0.42E-03    0.14E-02    0.17E-06
   1      6    11.387     5.964    0.41E-03    0.11E-02    0.17E-06
   1      6    11.387     5.382    0.39E-03    0.87E-03    0.15E-06

 ----------------------------------------------------------------------------- 
|                                                                             |
|  ADVICE TO THIS USER RUNNING 'VASP/VAMP'   (HEAR YOUR MASTER'S VOICE ...):  |
|                                                                             |
|      You enforced a specific xc-type in the INCAR file,                     |
|      a different type was found on the POTCAR file                          |
|          I HOPE YOU KNOW, WHAT YOU ARE  DOING                               |
|                                                                             |
 ----------------------------------------------------------------------------- 

  PAW_PBE Ir 06Sep2000                  :
 energy of atom  1       EATOM= -560.1833
 kinetic energy error for atom=    0.0018 (will be added to EATOM!!)
  PAW_PBE O 08Apr2002                   :
 energy of atom  2       EATOM= -432.3788
 kinetic energy error for atom=    0.0224 (will be added to EATOM!!)
  PAW_PBE Ir 06Sep2000                  :
 energy of atom  3       EATOM= -560.1833
 kinetic energy error for atom=    0.0018 (will be added to EATOM!!)
  PAW_PBE O 08Apr2002                   :
 energy of atom  4       EATOM= -432.3788
 kinetic energy error for atom=    0.0224 (will be added to EATOM!!)
 
 
 POSCAR: Ir  O Ir  O                             
  positions in cartesian coordinates
  No initial velocities read in
 exchange correlation table for  LEXCH =        9
   RHO(1)=    0.500       N(1)  =     2000
   RHO(2)=  100.500       N(2)  =     4000

 VTST: version 3.2, (02/03/18)

 CHAIN: initializing optimizer
 
 OPT: Using VASP Conjugate-Gradient optimizer
 CHAIN: Read ICHAIN            0
 
 POSCAR: Ir  O Ir  O                             
  positions in cartesian coordinates
  No initial velocities read in
 


--------------------------------------------------------------------------------------------------------


 ion  position               nearest neighbor table
   1  0.125  0.500  0.188-  21 2.00  29 2.00  17 2.02  25 2.02  26 2.02  18 2.02   2 3.20  50 3.20

   2  0.375  0.500  0.188-  22 2.00  30 2.00  26 2.02  18 2.02  65 2.02  73 2.02   1 3.20  49 3.20

   3  0.125  0.000  0.062-  23 2.00  31 2.00  19 2.02  27 2.02  28 2.02  20 2.02   4 3.20  52 3.20

   4  0.375  0.000  0.062-  24 2.00  32 2.00  28 2.02  20 2.02  67 2.02  75 2.02   3 3.20  51 3.20

   5  0.000  0.500  0.062-  17 2.00  23 2.02  31 2.02  72 2.02  80 2.02   6 3.20  54 3.20
   6  0.250  0.500  0.062-  18 2.00  23 2.02  24 2.02  31 2.02  32 2.02   5 3.20  53 3.20
   7  0.000  0.000  0.188-  35 1.97  27 2.00  29 2.02  21 2.02  70 2.02  78 2.02   8 3.20  56 3.20

   8  0.250  0.000  0.188-  36 1.97  28 2.00  21 2.02  29 2.02  30 2.02  22 2.02   7 3.20  55 3.20

   9  0.125  0.500  0.439-  41 1.99  42 1.99  37 2.01  45 2.01  33 2.04  34 2.04  10 3.20  58 3.20

  10  0.375  0.500  0.439-  42 1.99  89 1.99  46 2.01  38 2.01  81 2.04  34 2.04   9 3.20  57 3.20

  11  0.125  0.000  0.312-  39 2.00  47 2.00  44 2.02  43 2.02  35 2.03  36 2.03  12 3.20  60 3.20

  12  0.375  0.000  0.312-  40 2.00  48 2.00  44 2.02  91 2.02  83 2.03  36 2.03  11 3.20  59 3.20

  13  0.000  0.500  0.313-  33 1.99  25 2.01  39 2.02  47 2.02  88 2.02  96 2.02  14 3.20  62 3.20

  14  0.250  0.500  0.313-  34 1.99  26 2.01  39 2.02  40 2.02  47 2.02  48 2.02  13 3.20  61 3.20

  15  0.000  0.000  0.435-  43 1.96  37 2.02  45 2.02  86 2.02  94 2.02  16 3.20  64 3.20
  16  0.250  0.000  0.435-  44 1.96  38 2.02  37 2.02  45 2.02  46 2.02  15 3.20  63 3.20
  17  0.000  0.500  0.140-   5 2.00   1 2.02  50 2.02
  18  0.250  0.500  0.140-   6 2.00   2 2.02   1 2.02
  19  0.000  0.000  0.015-   3 2.02  52 2.02
  20  0.250  0.000  0.015-   3 2.02   4 2.02
  21  0.125  0.808  0.188-   1 2.00   7 2.02   8 2.02
  22  0.375  0.808  0.188-   2 2.00   8 2.02  55 2.02
  23  0.125  0.308  0.062-   3 2.00   5 2.02   6 2.02
  24  0.375  0.308  0.062-   4 2.00   6 2.02  53 2.02
  25  0.000  0.500  0.235-  13 2.01   1 2.02  50 2.02
  26  0.250  0.500  0.235-  14 2.01   2 2.02   1 2.02
  27  0.000  0.000  0.110-   7 2.00   3 2.02  52 2.02
  28  0.250  0.000  0.110-   8 2.00   4 2.02   3 2.02
  29  0.125  0.192  0.188-   1 2.00   7 2.02   8 2.02
  30  0.375  0.192  0.188-   2 2.00   8 2.02  55 2.02
  31  0.125  0.692  0.062-   3 2.00   5 2.02   6 2.02
  32  0.375  0.692  0.062-   4 2.00   6 2.02  53 2.02
  33  0.000  0.500  0.390-  13 1.99   9 2.04  58 2.04
  34  0.250  0.500  0.390-  14 1.99  10 2.04   9 2.04
  35  0.000  0.000  0.264-   7 1.97  11 2.03  60 2.03
  36  0.250  0.000  0.264-   8 1.97  11 2.03  12 2.03
  37  0.125  0.810  0.441-   9 2.01  15 2.02  16 2.02
  38  0.375  0.810  0.441-  10 2.01  16 2.02  63 2.02
  39  0.125  0.308  0.313-  11 2.00  13 2.02  14 2.02
  40  0.375  0.308  0.313-  12 2.00  14 2.02  61 2.02
  41  0.000  0.500  0.484-   9 1.99  58 1.99
  42  0.250  0.500  0.484-   9 1.99  10 1.99
  43  0.000  0.000  0.359-  15 1.96  11 2.02  60 2.02
  44  0.250  0.000  0.359-  16 1.96  12 2.02  11 2.02
  45  0.125  0.190  0.441-   9 2.01  15 2.02  16 2.02
  46  0.375  0.190  0.441-  10 2.01  16 2.02  63 2.02
  47  0.125  0.692  0.313-  11 2.00  13 2.02  14 2.02
  48  0.375  0.692  0.313-  12 2.00  14 2.02  61 2.02
  49  0.625  0.500  0.188-  69 2.00  77 2.00  65 2.02  73 2.02  74 2.02  66 2.02   2 3.20  50 3.20

  50  0.875  0.500  0.188-  70 2.00  78 2.00  66 2.02  17 2.02  74 2.02  25 2.02   1 3.20  49 3.20

  51  0.625  0.000  0.062-  71 2.00  79 2.00  67 2.02  75 2.02  76 2.02  68 2.02   4 3.20  52 3.20

  52  0.875  0.000  0.062-  72 2.00  80 2.00  68 2.02  19 2.02  76 2.02  27 2.02   3 3.20  51 3.20

  53  0.500  0.500  0.062-  65 2.00  32 2.02  24 2.02  71 2.02  79 2.02  54 3.20   6 3.20
  54  0.750  0.500  0.062-  66 2.00  71 2.02  72 2.02  79 2.02  80 2.02  53 3.20   5 3.20
  55  0.500  0.000  0.188-  83 1.97  75 2.00  69 2.02  22 2.02  77 2.02  30 2.02   8 3.20  56 3.20

  56  0.750  0.000  0.188-  84 1.97  76 2.00  69 2.02  77 2.02  78 2.02  70 2.02   7 3.20  55 3.20

  57  0.625  0.500  0.439-  89 1.99  90 1.99  85 2.01  93 2.01  81 2.04  82 2.04  10 3.20  58 3.20

  58  0.875  0.500  0.439-  41 1.99  90 1.99  86 2.01  94 2.01  82 2.04  33 2.04   9 3.20  57 3.20

  59  0.625  0.000  0.312-  87 2.00  95 2.00  92 2.02  91 2.02  83 2.03  84 2.03  12 3.20  60 3.20

  60  0.875  0.000  0.312-  88 2.00  96 2.00  92 2.02  43 2.02  84 2.03  35 2.03  11 3.20  59 3.20

  61  0.500  0.500  0.313-  81 1.99  73 2.01  40 2.02  48 2.02  87 2.02  95 2.02  14 3.20  62 3.20

  62  0.750  0.500  0.313-  82 1.99  74 2.01  87 2.02  88 2.02  95 2.02  96 2.02  13 3.20  61 3.20

  63  0.500  0.000  0.435-  91 1.96  46 2.02  85 2.02  38 2.02  93 2.02  64 3.20  16 3.20
  64  0.750  0.000  0.435-  92 1.96  86 2.02  85 2.02  93 2.02  94 2.02  63 3.20  15 3.20
  65  0.500  0.500  0.140-  53 2.00  49 2.02   2 2.02
  66  0.750  0.500  0.140-  54 2.00  50 2.02  49 2.02
  67  0.500  0.000  0.015-   4 2.02  51 2.02
  68  0.750  0.000  0.015-  51 2.02  52 2.02
  69  0.625  0.808  0.188-  49 2.00  55 2.02  56 2.02
  70  0.875  0.808  0.188-  50 2.00   7 2.02  56 2.02
  71  0.625  0.308  0.062-  51 2.00  53 2.02  54 2.02
  72  0.875  0.308  0.062-  52 2.00   5 2.02  54 2.02
  73  0.500  0.500  0.235-  61 2.01  49 2.02   2 2.02
  74  0.750  0.500  0.235-  62 2.01  50 2.02  49 2.02
  75  0.500  0.000  0.110-  55 2.00  51 2.02   4 2.02
  76  0.750  0.000  0.110-  56 2.00  52 2.02  51 2.02
  77  0.625  0.192  0.188-  49 2.00  55 2.02  56 2.02
  78  0.875  0.192  0.188-  50 2.00   7 2.02  56 2.02
  79  0.625  0.692  0.062-  51 2.00  53 2.02  54 2.02
  80  0.875  0.692  0.062-  52 2.00   5 2.02  54 2.02
  81  0.500  0.500  0.390-  61 1.99  57 2.04  10 2.04
  82  0.750  0.500  0.390-  62 1.99  58 2.04  57 2.04
  83  0.500  0.000  0.264-  55 1.97  12 2.03  59 2.03
  84  0.750  0.000  0.264-  56 1.97  59 2.03  60 2.03
  85  0.625  0.810  0.441-  57 2.01  63 2.02  64 2.02
  86  0.875  0.810  0.441-  58 2.01  15 2.02  64 2.02
  87  0.625  0.308  0.313-  59 2.00  61 2.02  62 2.02
  88  0.875  0.308  0.313-  60 2.00  13 2.02  62 2.02
  89  0.500  0.500  0.484-  10 1.99  57 1.99
  90  0.750  0.500  0.484-  57 1.99  58 1.99
  91  0.500  0.000  0.359-  63 1.96  59 2.02  12 2.02
  92  0.750  0.000  0.359-  64 1.96  60 2.02  59 2.02
  93  0.625  0.190  0.441-  57 2.01  63 2.02  64 2.02
  94  0.875  0.190  0.441-  58 2.01  15 2.02  64 2.02
  95  0.625  0.692  0.313-  59 2.00  61 2.02  62 2.02
  96  0.875  0.692  0.313-  60 2.00  13 2.02  62 2.02
 
  LATTYP: Found a simple orthorhombic cell.
 ALAT       =     6.4702430000
 B/A-ratio  =     1.9796060210
 C/A-ratio  =     4.0000000000
  
  Lattice vectors:
  
 A1 = (   0.0000000000,  -6.4702430000,   0.0000000000)
 A2 = ( -12.8085320000,   0.0000000000,   0.0000000000)
 A3 = (   0.0000000000,   0.0000000000, -25.8809720000)


Analysis of symmetry for initial positions (statically):
=====================================================================
 Subroutine PRICEL returns:
 Original cell was already a primitive cell.
 

 Routine SETGRP: Setting up the symmetry group for a 
 simple orthorhombic supercell.


 Subroutine GETGRP returns: Found  2 space group operations
 (whereof  2 operations were pure point group operations)
 out of a pool of  8 trial point group operations.


The static configuration has the point symmetry C_1h.


Analysis of symmetry for dynamics (positions and initial velocities):
=====================================================================
 Subroutine PRICEL returns:
 Original cell was already a primitive cell.
 

 Routine SETGRP: Setting up the symmetry group for a 
 simple orthorhombic supercell.


 Subroutine GETGRP returns: Found  2 space group operations
 (whereof  2 operations were pure point group operations)
 out of a pool of  8 trial point group operations.


The dynamic configuration has the point symmetry C_1h.


Analysis of constrained symmetry for selective dynamics:
=====================================================================
 Subroutine PRICEL returns:
 Original cell was already a primitive cell.
 

 Routine SETGRP: Setting up the symmetry group for a 
 simple orthorhombic supercell.


 Subroutine GETGRP returns: Found  2 space group operations
 (whereof  2 operations were pure point group operations)
 out of a pool of  8 trial point group operations.


The constrained configuration has the point symmetry C_1h.


Analysis of structural, dynamic, and magnetic symmetry:
=====================================================================
 Subroutine PRICEL returns:
 Original cell was already a primitive cell.
 

 Routine SETGRP: Setting up the symmetry group for a 
 simple orthorhombic supercell.


 Subroutine GETGRP returns: Found  2 space group operations
 (whereof  2 operations were pure point group operations)
 out of a pool of  8 trial point group operations.


The magnetic configuration has the point symmetry C_1h.


 Subroutine INISYM returns: Found  2 space group operations
 (whereof  2 operations are pure point group operations),
 and found     1 'primitive' translations

 
 
 KPOINTS: Automatic mesh                          

Automatic generation of k-mesh.
Space group operators:
 irot       det(A)        alpha          n_x          n_y          n_z        tau_x        tau_y        tau_z
    1     1.000000     0.000001     1.000000     0.000000     0.000000     0.000000     0.000000     0.000000
    2    -1.000000   180.000000     0.000000     1.000000     0.000000     0.000000     0.000000     0.000000
 
 Subroutine IBZKPT returns following result:
 ===========================================
 
 Found      4 irreducible k-points:
 
 Following reciprocal coordinates:
            Coordinates               Weight
  0.000000  0.000000  0.000000      1.000000
  0.333333  0.000000  0.000000      2.000000
  0.000000  0.333333  0.000000      2.000000
  0.333333  0.333333  0.000000      4.000000
 
 Following cartesian coordinates:
            Coordinates               Weight
  0.000000  0.000000  0.000000      1.000000
  0.026024  0.000000  0.000000      2.000000
  0.000000  0.051518  0.000000      2.000000
  0.026024  0.051518  0.000000      4.000000
 


--------------------------------------------------------------------------------------------------------




 Dimension of arrays:
   k-points           NKPTS =      4   k-points in BZ     NKDIM =      4   number of bands    NBANDS=    432
   number of dos      NEDOS =    301   number of ions     NIONS =     96
   non local maximal  LDIM  =      6   non local SUM 2l+1 LMDIM =     18
   total plane-waves  NPLWV = 362880
   max r-space proj   IRMAX =   2532   max aug-charges    IRDMAX=  12432
   dimension x,y,z NGX =    70 NGY =   36 NGZ =  144
   dimension x,y,z NGXF=   140 NGYF=   72 NGZF=  288
   support grid    NGXF=   140 NGYF=   72 NGZF=  288
   ions per type =              16  32  16  32
   NGX,Y,Z   is equivalent  to a cutoff of   9.09,  9.25,  9.25 a.u.
   NGXF,Y,Z  is equivalent  to a cutoff of  18.17, 18.50, 18.50 a.u.

 SYSTEM =  unknown system                          
 POSCAR =  Ir  O Ir  O                             

 Startparameter for this run:
   NWRITE =      2    write-flag & timer
   PREC   = normal    normal or accurate (medium, high low for compatibility)
   ISTART =      0    job   : 0-new  1-cont  2-samecut
   ICHARG =      2    charge: 1-file 2-atom 10-const
   ISPIN  =      2    spin polarized calculation?
   LNONCOLLINEAR =      F non collinear calculations
   LSORBIT =      F    spin-orbit coupling
   INIWAV =      1    electr: 0-lowe 1-rand  2-diag
   LASPH  =      F    aspherical Exc in radial PAW
   METAGGA=      F    non-selfconsistent MetaGGA calc.

 Electronic Relaxation 1
   ENCUT  =  500.0 eV  36.75 Ry    6.06 a.u.  23.35 11.80 47.19*2*pi/ulx,y,z
   ENINI  =  500.0     initial cutoff
   ENAUG  =  605.4 eV  augmentation charge cutoff
   NELM   =     60;   NELMIN=  4; NELMDL= -5     # of ELM steps 
   EDIFF  = 0.1E-04   stopping-criterion for ELM
   LREAL  =      T    real-space projection
   NLSPLINE    = F    spline interpolate recip. space projectors
   LCOMPAT=      F    compatible to vasp.4.4
   GGA_COMPAT  = T    GGA compatible to vasp.4.4-vasp.4.6
   LMAXPAW     = -100 max onsite density
   LMAXMIX     =    2 max onsite mixed and CHGCAR
   VOSKOWN=      0    Vosko Wilk Nusair interpolation
   ROPT   =   -0.00050  -0.00050  -0.00050  -0.00050
 Ionic relaxation
   EDIFFG = -.5E-01   stopping-criterion for IOM
   NSW    =    500    number of steps for IOM
   NBLOCK =      1;   KBLOCK =    500    inner block; outer block 
   IBRION =      2    ionic relax: 0-MD 1-quasi-New 2-CG
   NFREE  =      1    steps in history (QN), initial steepest desc. (CG)
   ISIF   =      2    stress and relaxation
   IWAVPR =     11    prediction:  0-non 1-charg 2-wave 3-comb
   ISYM   =      2    0-nonsym 1-usesym 2-fastsym
   LCORR  =      T    Harris-Foulkes like correction to forces

   POTIM  = 0.5000    time-step for ionic-motion
   TEIN   =    0.0    initial temperature
   TEBEG  =    0.0;   TEEND  =   0.0 temperature during run
   SMASS  =  -3.00    Nose mass-parameter (am)
   estimated Nose-frequenzy (Omega)   =  0.10E-29 period in steps =****** mass=  -0.375E-26a.u.
   SCALEE = 1.0000    scale energy and forces
   NPACO  =    256;   APACO  = 16.0  distance and # of slots for P.C.
   PSTRESS=    0.0 pullay stress

  Mass of Ions in am
   POMASS = 192.22 16.00192.22 16.00
  Ionic Valenz
   ZVAL   =   9.00  6.00  9.00  6.00
  Atomic Wigner-Seitz radii
   RWIGS  =  -1.00 -1.00 -1.00 -1.00
  virtual crystal weights 
   VCA    =   1.00  1.00  1.00  1.00
   NELECT =     672.0000    total number of electrons
   NUPDOWN=      -1.0000    fix difference up-down

 DOS related values:
   EMIN   =  10.00;   EMAX   =-10.00  energy-range for DOS
   EFERMI =   0.00
   ISMEAR =     0;   SIGMA  =   0.05  broadening in eV -4-tet -1-fermi 0-gaus

 Electronic relaxation 2 (details)
   IALGO  =     68    algorithm
   LDIAG  =      T    sub-space diagonalisation (order eigenvalues)
   LSUBROT=      F    optimize rotation matrix (better conditioning)
   TURBO    =      0    0=normal 1=particle mesh
   IRESTART =      0    0=no restart 2=restart with 2 vectors
   NREBOOT  =      0    no. of reboots
   NMIN     =      0    reboot dimension
   EREF     =   0.00    reference energy to select bands
   IMIX   =      4    mixing-type and parameters
     AMIX     =   0.40;   BMIX     =  1.00
     AMIX_MAG =   1.60;   BMIX_MAG =  1.00
     AMIN     =   0.10
     WC   =   100.;   INIMIX=   1;  MIXPRE=   1;  MAXMIX= -45

 Intra band minimization:
   WEIMIN = 0.0010     energy-eigenvalue tresh-hold
   EBREAK =  0.58E-08  absolut break condition
   DEPER  =   0.30     relativ break condition  

   TIME   =   0.40     timestep for ELM

  volume/ion in A,a.u.               =      22.34       150.77
  Fermi-wavevector in a.u.,A,eV,Ry     =   1.111897  2.101180 16.821075  1.236314
  Thomas-Fermi vector in A             =   2.248465
 
 Write flags
   LWAVE        =      F    write WAVECAR
   LDOWNSAMPLE  =      F    k-point downsampling of WAVECAR
   LCHARG       =      F    write CHGCAR
   LVTOT        =      F    write LOCPOT, total local potential
   LVHAR        =      F    write LOCPOT, Hartree potential only
   LELF         =      F    write electronic localiz. function (ELF)
   LORBIT       =      0    0 simple, 1 ext, 2 COOP (PROOUT), +10 PAW based schemes


 Dipole corrections
   LMONO  =      F    monopole corrections only (constant potential shift)
   LDIPOL =      T    correct potential (dipole corrections)
   IDIPOL =      3    1-x, 2-y, 3-z, 4-all directions 
   EPSILON=  1.0000000 bulk dielectric constant

 Exchange correlation treatment:
   GGA     =    RP    GGA type
   LEXCH   =     9    internal setting for exchange type
   VOSKOWN=      0    Vosko Wilk Nusair interpolation
   LHFCALC =     F    Hartree Fock is set to
   LHFONE  =     F    Hartree Fock one center treatment
   AEXX    =    0.0000 exact exchange contribution

 Linear response parameters
   LEPSILON=     F    determine dielectric tensor
   LRPA    =     F    only Hartree local field effects (RPA)
   LNABLA  =     F    use nabla operator in PAW spheres
   LVEL    =     F    velocity operator in full k-point grid
   LINTERFAST=   F  fast interpolation
   KINTER  =     0    interpolate to denser k-point grid
   CSHIFT  =0.1000    complex shift for real part using Kramers Kronig
   OMEGAMAX=  -1.0    maximum frequency
   DEG_THRESHOLD= 0.2000000E-02 threshold for treating states as degnerate
   RTIME   =   -0.100 relaxation time in fs
  (WPLASMAI=    0.000 imaginary part of plasma frequency in eV, 0.658/RTIME)
   DFIELD  = 0.0000000 0.0000000 0.0000000 field for delta impulse in time
 
 Orbital magnetization related:
   ORBITALMAG=     F  switch on orbital magnetization
   LCHIMAG   =     F  perturbation theory with respect to B field
   DQ        =  0.001000  dq finite difference perturbation B field
   LLRAUG    =     F  two centre corrections for induced B field



--------------------------------------------------------------------------------------------------------


 conjugate gradient relaxation of ions
   using selective dynamics as specified on POSCAR
   WARNING: If single coordinates had been selected the selection of coordinates
            is made according to the corresponding   d i r e c t   coordinates!
            Don't support selection of single cartesian coordinates -- sorry ...
  !
 charge density and potential will be updated during run
 spin polarized calculation
 RMM-DIIS sequential band-by-band and
  variant of blocked Davidson during initial phase
 perform sub-space diagonalisation
    before iterative eigenvector-optimisation
 modified Broyden-mixing scheme, WC =      100.0
 initial mixing is a Kerker type mixing with AMIX =  0.4000 and BMIX =      1.0000
 Hartree-type preconditioning will be used
 using additional bands           96
 real space projection scheme for non local part
 use partial core corrections
 calculate Harris-corrections to forces 
   (improved forces if not selfconsistent)
 use gradient corrections 
 use of overlap-Matrix (Vanderbilt PP)
 Gauss-broadening in eV      SIGMA  =   0.05


--------------------------------------------------------------------------------------------------------


  energy-cutoff  :      500.00
  volume of cell :     2144.87
      direct lattice vectors                 reciprocal lattice vectors
    12.808532000  0.000000000  0.000000000     0.078072959  0.000000000  0.000000000
     0.000000000  6.470243000  0.000000000     0.000000000  0.154553701  0.000000000
     0.000000000  0.000000000 25.880972000     0.000000000  0.000000000  0.038638425

  length of vectors
    12.808532000  6.470243000 25.880972000     0.078072959  0.154553701  0.038638425


 
 k-points in units of 2pi/SCALE and weight: Automatic mesh                          
   0.00000000  0.00000000  0.00000000       0.111
   0.02602432  0.00000000  0.00000000       0.222
   0.00000000  0.05151790  0.00000000       0.222
   0.02602432  0.05151790  0.00000000       0.444
 
 k-points in reciprocal lattice and weights: Automatic mesh                          
   0.00000000  0.00000000  0.00000000       0.111
   0.33333333  0.00000000  0.00000000       0.222
   0.00000000  0.33333333  0.00000000       0.222
   0.33333333  0.33333333  0.00000000       0.444
 
 position of ions in fractional coordinates (direct lattice) 
   0.12500000  0.50000000  0.18750000
   0.37500000  0.50000000  0.18750000
   0.12500000  0.00000000  0.06250000
   0.37500000  0.00000000  0.06250000
   0.00000000  0.50000000  0.06250000
   0.25000000  0.50000000  0.06250000
   0.00000000  0.00000000  0.18750000
   0.25000000  0.00000000  0.18750000
   0.12500000  0.50000000  0.43873602
   0.37500000  0.50000000  0.43873602
   0.12500000  0.00000000  0.31170171
   0.37500000  0.00000000  0.31170171
   0.00000000  0.50000000  0.31302025
   0.25000000  0.50000000  0.31302025
   0.00000000  0.00000000  0.43482044
   0.25000000  0.00000000  0.43482044
   0.00000000  0.50000000  0.13961000
   0.25000000  0.50000000  0.13961000
   0.00000000  0.00000000  0.01461000
   0.25000000  0.00000000  0.01461000
   0.12500000  0.80844000  0.18750000
   0.37500000  0.80844000  0.18750000
   0.12500000  0.30844000  0.06250000
   0.37500000  0.30844000  0.06250000
   0.00000000  0.50000000  0.23539000
   0.25000000  0.50000000  0.23539000
   0.00000000  0.00000000  0.11039000
   0.25000000  0.00000000  0.11039000
   0.12500000  0.19156000  0.18750000
   0.37500000  0.19156000  0.18750000
   0.12500000  0.69156000  0.06250000
   0.37500000  0.69156000  0.06250000
   0.00000000  0.50000000  0.39006130
   0.25000000  0.50000000  0.39006130
   0.00000000  0.00000000  0.26374133
   0.25000000  0.00000000  0.26374133
   0.12500000  0.80990811  0.44067954
   0.37500000  0.80990811  0.44067954
   0.12500000  0.30843789  0.31281846
   0.37500000  0.30843789  0.31281846
   0.00000000  0.50000000  0.48449910
   0.25000000  0.50000000  0.48449910
   0.00000000  0.00000000  0.35903889
   0.25000000  0.00000000  0.35903889
   0.12500000  0.19009189  0.44067954
   0.37500000  0.19009189  0.44067954
   0.12500000  0.69156211  0.31281846
   0.37500000  0.69156211  0.31281846
   0.62500000  0.50000000  0.18750000
   0.87500000  0.50000000  0.18750000
   0.62500000  0.00000000  0.06250000
   0.87500000  0.00000000  0.06250000
   0.50000000  0.50000000  0.06250000
   0.75000000  0.50000000  0.06250000
   0.50000000  0.00000000  0.18750000
   0.75000000  0.00000000  0.18750000
   0.62500000  0.50000000  0.43873602
   0.87500000  0.50000000  0.43873602
   0.62500000  0.00000000  0.31170171
   0.87500000  0.00000000  0.31170171
   0.50000000  0.50000000  0.31302025
   0.75000000  0.50000000  0.31302025
   0.50000000  0.00000000  0.43482044
   0.75000000  0.00000000  0.43482044
   0.50000000  0.50000000  0.13961000
   0.75000000  0.50000000  0.13961000
   0.50000000  0.00000000  0.01461000
   0.75000000  0.00000000  0.01461000
   0.62500000  0.80844000  0.18750000
   0.87500000  0.80844000  0.18750000
   0.62500000  0.30844000  0.06250000
   0.87500000  0.30844000  0.06250000
   0.50000000  0.50000000  0.23539000
   0.75000000  0.50000000  0.23539000
   0.50000000  0.00000000  0.11039000
   0.75000000  0.00000000  0.11039000
   0.62500000  0.19156000  0.18750000
   0.87500000  0.19156000  0.18750000
   0.62500000  0.69156000  0.06250000
   0.87500000  0.69156000  0.06250000
   0.50000000  0.50000000  0.39006130
   0.75000000  0.50000000  0.39006130
   0.50000000  0.00000000  0.26374133
   0.75000000  0.00000000  0.26374133
   0.62500000  0.80990811  0.44067954
   0.87500000  0.80990811  0.44067954
   0.62500000  0.30843789  0.31281846
   0.87500000  0.30843789  0.31281846
   0.50000000  0.50000000  0.48449910
   0.75000000  0.50000000  0.48449910
   0.50000000  0.00000000  0.35903889
   0.75000000  0.00000000  0.35903889
   0.62500000  0.19009189  0.44067954
   0.87500000  0.19009189  0.44067954
   0.62500000  0.69156211  0.31281846
   0.87500000  0.69156211  0.31281846
 
 position of ions in cartesian coordinates  (Angst):
   1.60106650  3.23512150  4.85268225
   4.80319950  3.23512150  4.85268225
   1.60106650  0.00000000  1.61756075
   4.80319950  0.00000000  1.61756075
   0.00000000  3.23512150  1.61756075
   3.20213300  3.23512150  1.61756075
   0.00000000  0.00000000  4.85268225
   3.20213300  0.00000000  4.85268225
   1.60106650  3.23512150 11.35491473
   4.80319950  3.23512150 11.35491473
   1.60106650  0.00000000  8.06714326
   4.80319950  0.00000000  8.06714326
   0.00000000  3.23512150  8.10126838
   3.20213300  3.23512150  8.10126838
   0.00000000  0.00000000 11.25357560
   3.20213300  0.00000000 11.25357560
   0.00000000  3.23512150  3.61324250
   3.20213300  3.23512150  3.61324250
   0.00000000  0.00000000  0.37812100
   3.20213300  0.00000000  0.37812100
   1.60106650  5.23080325  4.85268225
   4.80319950  5.23080325  4.85268225
   1.60106650  1.99568175  1.61756075
   4.80319950  1.99568175  1.61756075
   0.00000000  3.23512150  6.09212200
   3.20213300  3.23512150  6.09212200
   0.00000000  0.00000000  2.85700050
   3.20213300  0.00000000  2.85700050
   1.60106650  1.23943975  4.85268225
   4.80319950  1.23943975  4.85268225
   1.60106650  4.47456125  1.61756075
   4.80319950  4.47456125  1.61756075
   0.00000000  3.23512150 10.09516554
   3.20213300  3.23512150 10.09516554
   0.00000000  0.00000000  6.82588207
   3.20213300  0.00000000  6.82588207
   1.60106650  5.24030231 11.40521475
   4.80319950  5.24030231 11.40521475
   1.60106650  1.99566811  8.09604572
   4.80319950  1.99566811  8.09604572
   0.00000000  3.23512150 12.53930759
   3.20213300  3.23512150 12.53930759
   0.00000000  0.00000000  9.29227550
   3.20213300  0.00000000  9.29227550
   1.60106650  1.22994069 11.40521475
   4.80319950  1.22994069 11.40521475
   1.60106650  4.47457489  8.09604572
   4.80319950  4.47457489  8.09604572
   8.00533250  3.23512150  4.85268225
  11.20746550  3.23512150  4.85268225
   8.00533250  0.00000000  1.61756075
  11.20746550  0.00000000  1.61756075
   6.40426600  3.23512150  1.61756075
   9.60639900  3.23512150  1.61756075
   6.40426600  0.00000000  4.85268225
   9.60639900  0.00000000  4.85268225
   8.00533250  3.23512150 11.35491473
  11.20746550  3.23512150 11.35491473
   8.00533250  0.00000000  8.06714326
  11.20746550  0.00000000  8.06714326
   6.40426600  3.23512150  8.10126838
   9.60639900  3.23512150  8.10126838
   6.40426600  0.00000000 11.25357560
   9.60639900  0.00000000 11.25357560
   6.40426600  3.23512150  3.61324250
   9.60639900  3.23512150  3.61324250
   6.40426600  0.00000000  0.37812100
   9.60639900  0.00000000  0.37812100
   8.00533250  5.23080325  4.85268225
  11.20746550  5.23080325  4.85268225
   8.00533250  1.99568175  1.61756075
  11.20746550  1.99568175  1.61756075
   6.40426600  3.23512150  6.09212200
   9.60639900  3.23512150  6.09212200
   6.40426600  0.00000000  2.85700050
   9.60639900  0.00000000  2.85700050
   8.00533250  1.23943975  4.85268225
  11.20746550  1.23943975  4.85268225
   8.00533250  4.47456125  1.61756075
  11.20746550  4.47456125  1.61756075
   6.40426600  3.23512150 10.09516554
   9.60639900  3.23512150 10.09516554
   6.40426600  0.00000000  6.82588207
   9.60639900  0.00000000  6.82588207
   8.00533250  5.24030231 11.40521475
  11.20746550  5.24030231 11.40521475
   8.00533250  1.99566811  8.09604572
  11.20746550  1.99566811  8.09604572
   6.40426600  3.23512150 12.53930759
   9.60639900  3.23512150 12.53930759
   6.40426600  0.00000000  9.29227550
   9.60639900  0.00000000  9.29227550
   8.00533250  1.22994069 11.40521475
  11.20746550  1.22994069 11.40521475
   8.00533250  4.47457489  8.09604572
  11.20746550  4.47457489  8.09604572
 


--------------------------------------------------------------------------------------------------------


 k-point  1 :   0.0000 0.0000 0.0000  plane waves:   54455
 k-point  2 :   0.3333 0.0000 0.0000  plane waves:   54459
 k-point  3 :   0.0000 0.3333 0.0000  plane waves:   54468
 k-point  4 :   0.3333 0.3333 0.0000  plane waves:   54434

 maximum and minimum number of plane-waves per node :      5497     5417

 maximum number of plane-waves:     54468
 maximum index in each direction: 
   IXMAX=   23   IYMAX=   11   IZMAX=   47
   IXMIN=  -23   IYMIN=  -12   IZMIN=  -47


 real space projection operators:
  total allocation   :      13642.97 KBytes
  max/ min on nodes  :       1368.14       1360.00


 parallel 3D FFT for wavefunctions:
    minimum data exchange during FFTs selected (reduces bandwidth)
 parallel 3D FFT for charge:
    minimum data exchange during FFTs selected (reduces bandwidth)


 total amount of memory used by VASP MPI-rank0   127877. kBytes
=======================================================================

   base      :      30000. kBytes
   nonlr-proj:       5779. kBytes
   fftplans  :       3841. kBytes
   grid      :      10919. kBytes
   one-center:        311. kBytes
   wavefun   :      77027. kBytes
 
     INWAV:  cpu time    0.0000: real time    0.0002
 Broyden mixing: mesh for mixing (old mesh)
   NGX = 47   NGY = 23   NGZ = 95
  (NGX  =140   NGY  = 72   NGZ  =288)
  gives a total of 102695 points

 initial charge density was supplied:
 charge density of overlapping atoms calculated
 number of electron     672.0000000 magnetization      57.6000000
 keeping initial charge density in first step


--------------------------------------------------------------------------------------------------------


 Maximum index for non-local projection operator          274
 Maximum index for augmentation-charges          641 (set IRDMAX)


--------------------------------------------------------------------------------------------------------


 First call to EWALD:  gamma=   0.137
 Maximum number of real-space cells 3x 5x 2
 Maximum number of reciprocal cells 3x 2x 5

    FEWALD:  cpu time    0.0038: real time    0.0038


--------------------------------------- Iteration      1(   1)  ---------------------------------------


    POTLOK:  cpu time    0.0915: real time    0.0986
    SETDIJ:  cpu time    0.0159: real time    0.0184
     EDDAV:  cpu time   12.5394: real time   12.6016
       DOS:  cpu time    0.0022: real time    0.0022
    --------------------------------------------
      LOOP:  cpu time   12.6489: real time   12.7208

 eigenvalue-minimisations  :  6960
 total energy-change (2. order) : 0.7523268E+04  (-0.2999198E+05)
 number of electron     672.0000000 magnetization      57.6000000
 augmentation part      672.0000000 magnetization      57.6000000

 DIPCOR: dipole corrections for dipol
 direction  3 min pos   217,
 dipolmoment           0.000000      0.000000      0.000001 electrons x Angstroem
 Tr[quadrupol]    -12504.466055

 energy correction for charged system         0.000000 eV
 dipol+quadrupol energy correction           -0.000000 eV
 added-field ion interaction         -0.000000 eV  (added to PSCEN)


 Free energy of the ion-electron system (eV)
  ---------------------------------------------------
  alpha Z        PSCENC =      1734.56551759
  Ewald energy   TEWEN  =    232313.63640571
  -Hartree energ DENC   =   -277443.91823851
  -exchange      EXHF   =         0.00000000
  -V(xc)+E(xc)   XCENC  =      1203.23680747
  PAW double counting   =     39861.66969181   -38639.32290733
  entropy T*S    EENTRO =        -0.04835016
  eigenvalues    EBANDS =      2924.57616860
  atomic energy  EATOM  =     45568.87297956
  Solvation  Ediel_sol  =         0.00000000
  ---------------------------------------------------
  free energy    TOTEN  =      7523.26807474 eV

  energy without entropy =     7523.31642490  energy(sigma->0) =     7523.29224982


--------------------------------------------------------------------------------------------------------




--------------------------------------- Iteration      1(   2)  ---------------------------------------


     EDDAV:  cpu time   12.9552: real time   12.9926
       DOS:  cpu time    0.0022: real time    0.0022
    --------------------------------------------
      LOOP:  cpu time   12.9574: real time   12.9948

 eigenvalue-minimisations  :  7264
 total energy-change (2. order) :-0.6978051E+04  (-0.6404971E+04)
 number of electron     672.0000000 magnetization      57.6000000
 augmentation part      672.0000000 magnetization      57.6000000

 DIPCOR: dipole corrections for dipol
 direction  3 min pos   217,
 dipolmoment           0.000000      0.000000      0.000001 electrons x Angstroem
 Tr[quadrupol]    -12504.466055

 energy correction for charged system         0.000000 eV
 dipol+quadrupol energy correction           -0.000000 eV
 added-field ion interaction         -0.000000 eV  (added to PSCEN)


 Free energy of the ion-electron system (eV)
  ---------------------------------------------------
  alpha Z        PSCENC =      1734.56551759
  Ewald energy   TEWEN  =    232313.63640571
  -Hartree energ DENC   =   -277443.91823851
  -exchange      EXHF   =         0.00000000
  -V(xc)+E(xc)   XCENC  =      1203.23680747
  PAW double counting   =     39861.66969181   -38639.32290733
  entropy T*S    EENTRO =        -0.04415896
  eigenvalues    EBANDS =     -4053.47924279
  atomic energy  EATOM  =     45568.87297956
  Solvation  Ediel_sol  =         0.00000000
  ---------------------------------------------------
  free energy    TOTEN  =       545.21685455 eV

  energy without entropy =      545.26101351  energy(sigma->0) =      545.23893403


--------------------------------------------------------------------------------------------------------




--------------------------------------- Iteration      1(   3)  ---------------------------------------


     EDDAV:  cpu time   15.0179: real time   15.0638
       DOS:  cpu time    0.0022: real time    0.0022
    --------------------------------------------
      LOOP:  cpu time   15.0200: real time   15.0659

 eigenvalue-minimisations  :  8776
 total energy-change (2. order) :-0.1211388E+04  (-0.1156114E+04)
 number of electron     672.0000000 magnetization      57.6000000
 augmentation part      672.0000000 magnetization      57.6000000

 DIPCOR: dipole corrections for dipol
 direction  3 min pos   217,
 dipolmoment           0.000000      0.000000      0.000001 electrons x Angstroem
 Tr[quadrupol]    -12504.466055

 energy correction for charged system         0.000000 eV
 dipol+quadrupol energy correction           -0.000000 eV
 added-field ion interaction         -0.000000 eV  (added to PSCEN)


 Free energy of the ion-electron system (eV)
  ---------------------------------------------------
  alpha Z        PSCENC =      1734.56551759
  Ewald energy   TEWEN  =    232313.63640571
  -Hartree energ DENC   =   -277443.91823851
  -exchange      EXHF   =         0.00000000
  -V(xc)+E(xc)   XCENC  =      1203.23680747
  PAW double counting   =     39861.66969181   -38639.32290733
  entropy T*S    EENTRO =        -0.07817587
  eigenvalues    EBANDS =     -5264.83324474
  atomic energy  EATOM  =     45568.87297956
  Solvation  Ediel_sol  =         0.00000000
  ---------------------------------------------------
  free energy    TOTEN  =      -666.17116431 eV

  energy without entropy =     -666.09298844  energy(sigma->0) =     -666.13207637


--------------------------------------------------------------------------------------------------------




--------------------------------------- Iteration      1(   4)  ---------------------------------------


     EDDAV:  cpu time   15.0045: real time   15.0529
       DOS:  cpu time    0.0022: real time    0.0022
    --------------------------------------------
      LOOP:  cpu time   15.0067: real time   15.0550

 eigenvalue-minimisations  :  8752
 total energy-change (2. order) :-0.7189634E+02  (-0.6950073E+02)
 number of electron     672.0000000 magnetization      57.6000000
 augmentation part      672.0000000 magnetization      57.6000000

 DIPCOR: dipole corrections for dipol
 direction  3 min pos   217,
 dipolmoment           0.000000      0.000000      0.000001 electrons x Angstroem
 Tr[quadrupol]    -12504.466055

 energy correction for charged system         0.000000 eV
 dipol+quadrupol energy correction           -0.000000 eV
 added-field ion interaction         -0.000000 eV  (added to PSCEN)


 Free energy of the ion-electron system (eV)
  ---------------------------------------------------
  alpha Z        PSCENC =      1734.56551759
  Ewald energy   TEWEN  =    232313.63640571
  -Hartree energ DENC   =   -277443.91823851
  -exchange      EXHF   =         0.00000000
  -V(xc)+E(xc)   XCENC  =      1203.23680747
  PAW double counting   =     39861.66969181   -38639.32290733
  entropy T*S    EENTRO =        -0.09071070
  eigenvalues    EBANDS =     -5336.71705124
  atomic energy  EATOM  =     45568.87297956
  Solvation  Ediel_sol  =         0.00000000
  ---------------------------------------------------
  free energy    TOTEN  =      -738.06750563 eV

  energy without entropy =     -737.97679493  energy(sigma->0) =     -738.02215028


--------------------------------------------------------------------------------------------------------




--------------------------------------- Iteration      1(   5)  ---------------------------------------


     EDDAV:  cpu time   15.1901: real time   15.2337
       DOS:  cpu time    0.0022: real time    0.0022
    CHARGE:  cpu time    0.3136: real time    0.3152
    MIXING:  cpu time    0.0028: real time    0.0037
    --------------------------------------------
      LOOP:  cpu time   15.5087: real time   15.5548

 eigenvalue-minimisations  :  8896
 total energy-change (2. order) :-0.2335193E+01  (-0.2301219E+01)
 number of electron     672.0000329 magnetization      53.8603515
 augmentation part      118.4616066 magnetization      44.8900416

 DIPCOR: dipole corrections for dipol
 direction  3 min pos   217,
 dipolmoment           0.000000      0.000000      0.000001 electrons x Angstroem
 Tr[quadrupol]    -12504.466055

 energy correction for charged system         0.000000 eV
 dipol+quadrupol energy correction           -0.000000 eV
 added-field ion interaction         -0.000000 eV  (added to PSCEN)


 Broyden mixing:
  rms(total) = 0.17121E+02    rms(broyden)= 0.17120E+02
  rms(prec ) = 0.17329E+02
  weight for this iteration     100.00

 Free energy of the ion-electron system (eV)
  ---------------------------------------------------
  alpha Z        PSCENC =      1734.56551759
  Ewald energy   TEWEN  =    232313.63640571
  -Hartree energ DENC   =   -277443.91823851
  -exchange      EXHF   =         0.00000000
  -V(xc)+E(xc)   XCENC  =      1203.23680747
  PAW double counting   =     39861.66969181   -38639.32290733
  entropy T*S    EENTRO =        -0.09154035
  eigenvalues    EBANDS =     -5339.05141449
  atomic energy  EATOM  =     45568.87297956
  Solvation  Ediel_sol  =         0.00000000
  ---------------------------------------------------
  free energy    TOTEN  =      -740.40269854 eV

  energy without entropy =     -740.31115819  energy(sigma->0) =     -740.35692837


--------------------------------------------------------------------------------------------------------




--------------------------------------- Iteration      1(   6)  ---------------------------------------


    POTLOK:  cpu time    0.0830: real time    0.0849
    SETDIJ:  cpu time    0.0152: real time    0.0153
    EDDIAG:  cpu time    1.7320: real time    1.7380
  RMM-DIIS:  cpu time    4.8088: real time    4.8225
    ORTHCH:  cpu time    0.5408: real time    0.5421
       DOS:  cpu time    0.0022: real time    0.0022
    CHARGE:  cpu time    0.3122: real time    0.3131
    MIXING:  cpu time    0.0026: real time    0.0027
    --------------------------------------------
      LOOP:  cpu time    7.4968: real time    7.5208

 eigenvalue-minimisations  :  6965
 total energy-change (2. order) : 0.1279235E+03  (-0.6715923E+02)
 number of electron     672.0000360 magnetization      50.4069551
 augmentation part      126.8856081 magnetization      38.8373060

 DIPCOR: dipole corrections for dipol
 direction  3 min pos   217,
 dipolmoment           0.000000      0.000000      0.104097 electrons x Angstroem
 Tr[quadrupol]    -12496.962048

 energy correction for charged system         0.000000 eV
 dipol+quadrupol energy correction           -0.000457 eV
 added-field ion interaction         -0.009571 eV  (added to PSCEN)


 Broyden mixing:
  rms(total) = 0.10297E+02    rms(broyden)= 0.10295E+02
  rms(prec ) = 0.10548E+02
  weight for this iteration     100.00

 eigenvalues of (default mixing * dielectric matrix)
  average eigenvalue GAMMA=   1.0297
  1.0297

 Free energy of the ion-electron system (eV)
  ---------------------------------------------------
  alpha Z        PSCENC =      1734.55548960
  Ewald energy   TEWEN  =    232313.63640571
  -Hartree energ DENC   =   -277829.61752011
  -exchange      EXHF   =         0.00000000
  -V(xc)+E(xc)   XCENC  =      1279.29828239
  PAW double counting   =     47678.86490303   -46519.52692598
  entropy T*S    EENTRO =        -0.07292111
  eigenvalues    EBANDS =     -4838.48985563
  atomic energy  EATOM  =     45568.87297956
  Solvation  Ediel_sol  =         0.00000000
  ---------------------------------------------------
  free energy    TOTEN  =      -612.47916253 eV

  energy without entropy =     -612.40624142  energy(sigma->0) =     -612.44270197


--------------------------------------------------------------------------------------------------------




--------------------------------------- Iteration      1(   7)  ---------------------------------------


    POTLOK:  cpu time    0.0823: real time    0.0828
    SETDIJ:  cpu time    0.0151: real time    0.0152
    EDDIAG:  cpu time    1.7379: real time    1.7424
  RMM-DIIS:  cpu time    4.8965: real time    4.9097
    ORTHCH:  cpu time    0.5360: real time    0.5373
       DOS:  cpu time    0.0021: real time    0.0021
    CHARGE:  cpu time    0.3126: real time    0.3135
    MIXING:  cpu time    0.0027: real time    0.0027
    --------------------------------------------
      LOOP:  cpu time    7.5852: real time    7.6055

 eigenvalue-minimisations  :  7101
 total energy-change (2. order) :-0.1445388E+03  (-0.2211152E+02)
 number of electron     672.0000266 magnetization      49.4420966
 augmentation part      121.6147033 magnetization      39.8208773

 DIPCOR: dipole corrections for dipol
 direction  3 min pos   217,
 dipolmoment           0.000000      0.000000     -2.270170 electrons x Angstroem
 Tr[quadrupol]    -12531.218912

 energy correction for charged system         0.000000 eV
 dipol+quadrupol energy correction           -0.217431 eV
 added-field ion interaction          0.208725 eV  (added to PSCEN)


 Broyden mixing:
  rms(total) = 0.21683E+02    rms(broyden)= 0.21682E+02
  rms(prec ) = 0.23675E+02
  weight for this iteration     100.00

 eigenvalues of (default mixing * dielectric matrix)
  average eigenvalue GAMMA=   0.6510
  1.1681  0.1339

 Free energy of the ion-electron system (eV)
  ---------------------------------------------------
  alpha Z        PSCENC =      1734.55681099
  Ewald energy   TEWEN  =    232313.63640571
  -Hartree energ DENC   =   -278430.55600792
  -exchange      EXHF   =         0.00000000
  -V(xc)+E(xc)   XCENC  =      1252.72498070
  PAW double counting   =     53332.04357850   -52181.44934828
  entropy T*S    EENTRO =        -0.09847979
  eigenvalues    EBANDS =     -4346.74888946
  atomic energy  EATOM  =     45568.87297956
  Solvation  Ediel_sol  =         0.00000000
  ---------------------------------------------------
  free energy    TOTEN  =      -757.01797000 eV

  energy without entropy =     -756.91949021  energy(sigma->0) =     -756.96873010


--------------------------------------------------------------------------------------------------------




--------------------------------------- Iteration      1(   8)  ---------------------------------------


    POTLOK:  cpu time    0.0841: real time    0.0902
    SETDIJ:  cpu time    0.0152: real time    0.0152
    EDDIAG:  cpu time    1.7339: real time    1.7383
  RMM-DIIS:  cpu time    4.8896: real time    4.9037
    ORTHCH:  cpu time    0.5352: real time    0.5365
       DOS:  cpu time    0.0021: real time    0.0021
    CHARGE:  cpu time    0.3098: real time    0.3107
    MIXING:  cpu time    0.0029: real time    0.0051
    --------------------------------------------
      LOOP:  cpu time    7.5729: real time    7.6019

 eigenvalue-minimisations  :  7064
 total energy-change (2. order) : 0.1005127E+02  (-0.4001880E+01)
 number of electron     672.0000326 magnetization      47.8714727
 augmentation part      121.9157233 magnetization      42.5213987

 DIPCOR: dipole corrections for dipol
 direction  3 min pos   217,
 dipolmoment           0.000000      0.000000      2.196407 electrons x Angstroem
 Tr[quadrupol]    -12524.472451

 energy correction for charged system         0.000000 eV
 dipol+quadrupol energy correction           -0.203531 eV
 added-field ion interaction         -0.201943 eV  (added to PSCEN)


 Broyden mixing:
  rms(total) = 0.17019E+02    rms(broyden)= 0.17018E+02
  rms(prec ) = 0.19685E+02
  weight for this iteration     100.00

 eigenvalues of (default mixing * dielectric matrix)
  average eigenvalue GAMMA=   0.5699
  1.3780  0.1971  0.1344

 Free energy of the ion-electron system (eV)
  ---------------------------------------------------
  alpha Z        PSCENC =      1734.16004337
  Ewald energy   TEWEN  =    232313.63640571
  -Hartree energ DENC   =   -278247.74972879
  -exchange      EXHF   =         0.00000000
  -V(xc)+E(xc)   XCENC  =      1253.34554204
  PAW double counting   =     54881.98376617   -53735.77764825
  entropy T*S    EENTRO =        -0.04789272
  eigenvalues    EBANDS =     -4515.39016670
  atomic energy  EATOM  =     45568.87297956
  Solvation  Ediel_sol  =         0.00000000
  ---------------------------------------------------
  free energy    TOTEN  =      -746.96669960 eV

  energy without entropy =     -746.91880688  energy(sigma->0) =     -746.94275324


--------------------------------------------------------------------------------------------------------




--------------------------------------- Iteration      1(   9)  ---------------------------------------


    POTLOK:  cpu time    0.0819: real time    0.0823
    SETDIJ:  cpu time    0.0151: real time    0.0152
    EDDIAG:  cpu time    1.7344: real time    1.7389
  RMM-DIIS:  cpu time    4.8115: real time    4.8242
    ORTHCH:  cpu time    0.5366: real time    0.5379
       DOS:  cpu time    0.0021: real time    0.0021
    CHARGE:  cpu time    0.3153: real time    0.3162
    MIXING:  cpu time    0.0030: real time    0.0030
    --------------------------------------------
      LOOP:  cpu time    7.4999: real time    7.5197

 eigenvalue-minimisations  :  6937
 total energy-change (2. order) :-0.5244391E+02  (-0.4836827E+01)
 number of electron     672.0000262 magnetization      44.1897989
 augmentation part      122.1646356 magnetization      37.3284292

 DIPCOR: dipole corrections for dipol
 direction  3 min pos   217,
 dipolmoment           0.000000      0.000000     -3.442956 electrons x Angstroem
 Tr[quadrupol]    -12514.514991

 energy correction for charged system         0.000000 eV
 dipol+quadrupol energy correction           -0.500114 eV
 added-field ion interaction          0.316553 eV  (added to PSCEN)


 Broyden mixing:
  rms(total) = 0.18588E+02    rms(broyden)= 0.18587E+02
  rms(prec ) = 0.22651E+02
  weight for this iteration     100.00

 eigenvalues of (default mixing * dielectric matrix)
  average eigenvalue GAMMA=   0.6928
  1.8958  0.4014  0.4014  0.0726

 Free energy of the ion-electron system (eV)
  ---------------------------------------------------
  alpha Z        PSCENC =      1734.38195755
  Ewald energy   TEWEN  =    232313.63640571
  -Hartree energ DENC   =   -278003.03986653
  -exchange      EXHF   =         0.00000000
  -V(xc)+E(xc)   XCENC  =      1256.02170707
  PAW double counting   =     57014.41421023   -55876.30666088
  entropy T*S    EENTRO =        -0.04956895
  eigenvalues    EBANDS =     -4807.34177371
  atomic energy  EATOM  =     45568.87297956
  Solvation  Ediel_sol  =         0.00000000
  ---------------------------------------------------
  free energy    TOTEN  =      -799.41060996 eV

  energy without entropy =     -799.36104101  energy(sigma->0) =     -799.38582548


--------------------------------------------------------------------------------------------------------




--------------------------------------- Iteration      1(  10)  ---------------------------------------


    POTLOK:  cpu time    0.0823: real time    0.0827
    SETDIJ:  cpu time    0.0152: real time    0.0152
    EDDIAG:  cpu time    1.7364: real time    1.7418
  RMM-DIIS:  cpu time    4.8133: real time    4.8265
    ORTHCH:  cpu time    0.5362: real time    0.5375
       DOS:  cpu time    0.0021: real time    0.0021
    CHARGE:  cpu time    0.3112: real time    0.3121
    MIXING:  cpu time    0.0030: real time    0.0031
    --------------------------------------------
      LOOP:  cpu time    7.4997: real time    7.5210

 eigenvalue-minimisations  :  6924
 total energy-change (2. order) : 0.6809316E+02  (-0.1089435E+02)
 number of electron     672.0000352 magnetization      43.6679251
 augmentation part      122.3462752 magnetization      37.0553563

 DIPCOR: dipole corrections for dipol
 direction  3 min pos   217,
 dipolmoment           0.000000      0.000000      2.284266 electrons x Angstroem
 Tr[quadrupol]    -12522.077065

 energy correction for charged system         0.000000 eV
 dipol+quadrupol energy correction           -0.220140 eV
 added-field ion interaction         -0.210021 eV  (added to PSCEN)


 Broyden mixing:
  rms(total) = 0.19674E+02    rms(broyden)= 0.19674E+02
  rms(prec ) = 0.21122E+02
  weight for this iteration     100.00

 eigenvalues of (default mixing * dielectric matrix)
  average eigenvalue GAMMA=   0.6013
  1.9596  0.4331  0.4331  0.1153  0.0653

 Free energy of the ion-electron system (eV)
  ---------------------------------------------------
  alpha Z        PSCENC =      1734.13535691
  Ewald energy   TEWEN  =    232313.63640571
  -Hartree energ DENC   =   -278251.65983958
  -exchange      EXHF   =         0.00000000
  -V(xc)+E(xc)   XCENC  =      1267.20245075
  PAW double counting   =     61370.18786132   -60247.36709500
  entropy T*S    EENTRO =        -0.04625760
  eigenvalues    EBANDS =     -4486.27931643
  atomic energy  EATOM  =     45568.87297956
  Solvation  Ediel_sol  =         0.00000000
  ---------------------------------------------------
  free energy    TOTEN  =      -731.31745436 eV

  energy without entropy =     -731.27119676  energy(sigma->0) =     -731.29432556


--------------------------------------------------------------------------------------------------------




--------------------------------------- Iteration      1(  11)  ---------------------------------------


    POTLOK:  cpu time    0.0830: real time    0.0834
    SETDIJ:  cpu time    0.0151: real time    0.0152
    EDDIAG:  cpu time    1.7312: real time    1.7357
  RMM-DIIS:  cpu time    5.0310: real time    5.0442
    ORTHCH:  cpu time    0.5357: real time    0.5371
       DOS:  cpu time    0.0022: real time    0.0022
    CHARGE:  cpu time    0.3112: real time    0.3120
    MIXING:  cpu time    0.0033: real time    0.0033
    --------------------------------------------
      LOOP:  cpu time    7.7128: real time    7.7333

 eigenvalue-minimisations  :  7306
 total energy-change (2. order) :-0.1098698E+02  (-0.1358310E+01)
 number of electron     672.0000358 magnetization      43.6632406
 augmentation part      122.4431218 magnetization      36.4247543

 DIPCOR: dipole corrections for dipol
 direction  3 min pos   217,
 dipolmoment           0.000000      0.000000      2.978186 electrons x Angstroem
 Tr[quadrupol]    -12520.639822

 energy correction for charged system         0.000000 eV
 dipol+quadrupol energy correction           -0.374205 eV
 added-field ion interaction         -0.273821 eV  (added to PSCEN)


 Broyden mixing:
  rms(total) = 0.21244E+02    rms(broyden)= 0.21243E+02
  rms(prec ) = 0.23641E+02
  weight for this iteration     100.00

 eigenvalues of (default mixing * dielectric matrix)
  average eigenvalue GAMMA=   0.5437
  1.9922  0.4551  0.4551  0.0716  0.1441  0.1441

 Free energy of the ion-electron system (eV)
  ---------------------------------------------------
  alpha Z        PSCENC =      1733.91749148
  Ewald energy   TEWEN  =    232313.63640571
  -Hartree energ DENC   =   -278215.16811820
  -exchange      EXHF   =         0.00000000
  -V(xc)+E(xc)   XCENC  =      1267.44376765
  PAW double counting   =     61865.38785448   -60744.64290272
  entropy T*S    EENTRO =        -0.06372946
  eigenvalues    EBANDS =     -4531.68818031
  atomic energy  EATOM  =     45568.87297956
  Solvation  Ediel_sol  =         0.00000000
  ---------------------------------------------------
  free energy    TOTEN  =      -742.30443181 eV

  energy without entropy =     -742.24070234  energy(sigma->0) =     -742.27256708


--------------------------------------------------------------------------------------------------------




--------------------------------------- Iteration      1(  12)  ---------------------------------------


    POTLOK:  cpu time    0.0824: real time    0.0836
    SETDIJ:  cpu time    0.0151: real time    0.0151
    EDDIAG:  cpu time    1.7332: real time    1.7382
  RMM-DIIS:  cpu time    5.2855: real time    5.3001
    ORTHCH:  cpu time    0.5369: real time    0.5382
       DOS:  cpu time    0.0021: real time    0.0021
    CHARGE:  cpu time    0.3113: real time    0.3121
    MIXING:  cpu time    0.0034: real time    0.0034
    --------------------------------------------
      LOOP:  cpu time    7.9698: real time    7.9928

 eigenvalue-minimisations  :  7693
 total energy-change (2. order) : 0.7311046E+00  (-0.1659161E+00)
 number of electron     672.0000360 magnetization      42.9594572
 augmentation part      122.3374245 magnetization      35.9029910

 DIPCOR: dipole corrections for dipol
 direction  3 min pos   217,
 dipolmoment           0.000000      0.000000      2.977572 electrons x Angstroem
 Tr[quadrupol]    -12520.821389

 energy correction for charged system         0.000000 eV
 dipol+quadrupol energy correction           -0.374051 eV
 added-field ion interaction         -0.273765 eV  (added to PSCEN)


 Broyden mixing:
  rms(total) = 0.21333E+02    rms(broyden)= 0.21333E+02
  rms(prec ) = 0.23685E+02
  weight for this iteration     100.00

 eigenvalues of (default mixing * dielectric matrix)
  average eigenvalue GAMMA=   0.5145
  2.2094  0.4465  0.4465  0.1515  0.1929  0.0775  0.0775

 Free energy of the ion-electron system (eV)
  ---------------------------------------------------
  alpha Z        PSCENC =      1733.91770198
  Ewald energy   TEWEN  =    232313.63640571
  -Hartree energ DENC   =   -278216.69301428
  -exchange      EXHF   =         0.00000000
  -V(xc)+E(xc)   XCENC  =      1267.65794262
  PAW double counting   =     61875.48115214   -60754.63240888
  entropy T*S    EENTRO =        -0.06741513
  eigenvalues    EBANDS =     -4529.74667096
  atomic energy  EATOM  =     45568.87297956
  Solvation  Ediel_sol  =         0.00000000
  ---------------------------------------------------
  free energy    TOTEN  =      -741.57332724 eV

  energy without entropy =     -741.50591211  energy(sigma->0) =     -741.53961967


--------------------------------------------------------------------------------------------------------




--------------------------------------- Iteration      1(  13)  ---------------------------------------


    POTLOK:  cpu time    0.0830: real time    0.0835
    SETDIJ:  cpu time    0.0151: real time    0.0151
    EDDIAG:  cpu time    1.7321: real time    1.7366
  RMM-DIIS:  cpu time    4.7815: real time    4.7941
    ORTHCH:  cpu time    0.5375: real time    0.5389
       DOS:  cpu time    0.0021: real time    0.0021
    CHARGE:  cpu time    0.3119: real time    0.3127
    MIXING:  cpu time    0.0035: real time    0.0035
    --------------------------------------------
      LOOP:  cpu time    7.4667: real time    7.4865

 eigenvalue-minimisations  :  6925
 total energy-change (2. order) : 0.5782000E+02  (-0.2889919E+01)
 number of electron     672.0000369 magnetization      41.9825849
 augmentation part      122.9111959 magnetization      35.6452157

 DIPCOR: dipole corrections for dipol
 direction  3 min pos   217,
 dipolmoment           0.000000      0.000000      2.083188 electrons x Angstroem
 Tr[quadrupol]    -12515.625869

 energy correction for charged system         0.000000 eV
 dipol+quadrupol energy correction           -0.183089 eV
 added-field ion interaction         -0.191533 eV  (added to PSCEN)


 Broyden mixing:
  rms(total) = 0.19310E+02    rms(broyden)= 0.19309E+02
  rms(prec ) = 0.21082E+02
  weight for this iteration     100.00

 eigenvalues of (default mixing * dielectric matrix)
  average eigenvalue GAMMA=   0.5576
  2.3914  0.3442  0.5186  0.5186  0.2746  0.2746  0.0693  0.0693

 Free energy of the ion-electron system (eV)
  ---------------------------------------------------
  alpha Z        PSCENC =      1734.19089539
  Ewald energy   TEWEN  =    232313.63640571
  -Hartree energ DENC   =   -278153.44727285
  -exchange      EXHF   =         0.00000000
  -V(xc)+E(xc)   XCENC  =      1271.44422184
  PAW double counting   =     63556.31096400   -62441.93697178
  entropy T*S    EENTRO =        -0.05811441
  eigenvalues    EBANDS =     -4532.76643919
  atomic energy  EATOM  =     45568.87297956
  Solvation  Ediel_sol  =         0.00000000
  ---------------------------------------------------
  free energy    TOTEN  =      -683.75333174 eV

  energy without entropy =     -683.69521733  energy(sigma->0) =     -683.72427453


--------------------------------------------------------------------------------------------------------




--------------------------------------- Iteration      1(  14)  ---------------------------------------


    POTLOK:  cpu time    0.0827: real time    0.0831
    SETDIJ:  cpu time    0.0152: real time    0.0152
    EDDIAG:  cpu time    1.7466: real time    1.7529
  RMM-DIIS:  cpu time    4.8213: real time    4.8346
    ORTHCH:  cpu time    0.5373: real time    0.5387
[...]
   -.261E-01 0.368E+01 0.165E+04   0.114E-02 -.179E+01 -.165E+04   0.533E-01 -.182E+01 -.529E+00   0.256E-01 -.151E-03 0.176E-01
   0.335E-01 -.553E-12 -.118E+04   -.244E-02 0.213E-13 0.118E+04   0.252E-02 0.000E+00 -.757E+00   -.346E-01 -.203E-12 0.684E-01
   -.585E-01 0.659E-12 -.118E+04   0.466E-01 -.377E-14 0.118E+04   -.136E-02 0.000E+00 -.779E+00   0.140E-01 -.115E-12 0.665E-01
   0.308E-01 -.220E-12 -.967E+02   0.134E-01 0.000E+00 0.947E+02   -.111E-01 0.000E+00 0.184E+01   -.320E-01 0.137E-12 0.108E+00
   -.168E-01 0.387E-12 -.970E+02   0.388E-02 0.193E-13 0.951E+02   0.549E-03 0.000E+00 0.181E+01   0.118E-01 -.264E-13 0.107E+00
   0.283E+00 -.462E+01 -.167E+04   -.311E+00 0.274E+01 0.168E+04   0.382E-01 0.189E+01 -.473E+01   -.682E-02 0.739E-02 0.119E-01
   -.268E+00 -.470E+01 -.167E+04   0.275E+00 0.284E+01 0.168E+04   -.422E-01 0.188E+01 -.472E+01   0.220E-01 0.167E-02 0.894E-02
   -.721E+00 0.320E+02 -.554E+03   0.799E+00 -.336E+02 0.554E+03   -.683E-01 0.160E+01 -.179E+00   -.476E-02 0.944E-02 0.746E-01
   0.668E+00 0.320E+02 -.553E+03   -.757E+00 -.336E+02 0.554E+03   0.643E-01 0.160E+01 -.165E+00   0.212E-01 0.740E-02 0.748E-01
   0.200E+00 0.229E-12 -.202E+04   -.202E+00 0.244E-14 0.205E+04   -.155E-01 0.000E+00 -.281E+02   -.235E-01 -.741E-13 -.103E-01
   -.255E-01 0.228E-12 -.202E+04   0.127E-01 0.163E-13 0.205E+04   0.119E-02 0.000E+00 -.281E+02   0.117E-01 0.518E-13 -.199E-01
   -.459E-01 0.211E-12 -.100E+04   0.910E-01 0.711E-14 0.100E+04   -.692E-02 0.000E+00 0.244E+01   -.338E-01 0.193E-12 0.890E-01
   -.878E-01 0.125E-11 -.100E+04   0.842E-01 -.304E-13 0.100E+04   -.568E-02 0.000E+00 0.246E+01   0.124E-01 0.110E-12 0.942E-01
   0.283E+00 0.462E+01 -.167E+04   -.311E+00 -.274E+01 0.168E+04   0.382E-01 -.189E+01 -.473E+01   -.682E-02 -.739E-02 0.119E-01
   -.268E+00 0.470E+01 -.167E+04   0.275E+00 -.284E+01 0.168E+04   -.422E-01 -.188E+01 -.472E+01   0.220E-01 -.167E-02 0.894E-02
   -.721E+00 -.320E+02 -.554E+03   0.799E+00 0.336E+02 0.554E+03   -.683E-01 -.160E+01 -.179E+00   -.476E-02 -.944E-02 0.746E-01
   0.668E+00 -.320E+02 -.553E+03   -.757E+00 0.336E+02 0.554E+03   0.643E-01 -.160E+01 -.165E+00   0.212E-01 -.740E-02 0.748E-01
   -.921E-01 0.812E-12 0.824E+03   0.765E-01 -.830E-13 -.824E+03   -.109E-01 0.000E+00 -.755E+00   0.158E-01 -.217E-12 0.134E+00
   0.125E+00 -.101E-12 0.824E+03   -.896E-01 -.107E-12 -.824E+03   0.110E-01 0.000E+00 -.755E+00   -.360E-01 -.621E-12 0.129E+00
   -.630E-02 0.130E-12 0.242E+04   0.380E-02 -.892E-13 -.243E+04   -.140E-01 0.000E+00 0.145E+01   0.440E-02 -.212E-12 0.350E-01
   0.205E-01 0.262E-12 0.242E+04   -.729E-02 -.579E-13 -.243E+04   0.140E-01 0.000E+00 0.145E+01   -.152E-01 0.283E-12 0.297E-01
   -.260E-01 -.203E-11 0.257E+04   0.410E-02 0.225E-14 -.257E+04   -.643E-04 0.000E+00 -.262E+01   0.221E-01 0.215E-12 0.369E-01
   0.990E-02 -.139E-11 0.257E+04   -.230E-02 0.707E-13 -.257E+04   -.124E-05 0.000E+00 -.260E+01   -.765E-02 -.128E-13 0.418E-01
   -.532E-01 0.158E-11 0.823E+03   0.145E-01 0.239E-13 -.823E+03   0.308E-03 0.000E+00 0.512E-01   0.391E-01 -.194E-12 0.122E+00
   0.243E-01 -.137E-11 0.823E+03   -.102E-01 -.142E-13 -.823E+03   -.267E-03 0.000E+00 0.495E-01   -.144E-01 0.572E-12 0.131E+00
   -.117E+00 -.131E-11 -.242E+04   0.110E+00 -.435E-13 0.242E+04   -.825E-02 0.000E+00 -.190E+01   0.184E-01 -.747E-13 -.360E-02
   0.157E+00 -.431E-11 -.242E+04   -.128E+00 0.657E-13 0.242E+04   0.615E-02 0.000E+00 -.190E+01   -.428E-01 -.561E-12 -.531E-03
   -.931E+00 0.454E-12 -.822E+03   0.909E+00 -.108E-12 0.821E+03   -.116E-01 0.000E+00 0.544E+00   0.176E-01 -.719E-13 0.107E+00
   0.111E+01 0.194E-12 -.822E+03   -.106E+01 0.000E+00 0.821E+03   0.334E-02 0.000E+00 0.546E+00   -.404E-01 0.435E-12 0.108E+00
   -.202E-01 0.510E-11 -.829E+03   -.253E-01 -.488E-14 0.830E+03   -.245E-02 0.000E+00 -.350E+00   0.442E-01 0.216E-12 0.967E-01
   0.403E-01 0.122E-11 -.828E+03   -.239E-01 -.142E-13 0.829E+03   -.449E-03 0.000E+00 -.332E+00   -.170E-01 -.256E-12 0.988E-01
   0.367E-01 0.121E-12 -.251E+04   -.684E-01 -.910E-14 0.251E+04   -.103E-02 0.000E+00 0.340E+01   0.333E-01 0.362E-13 -.682E-02
   0.944E-01 -.163E-11 -.251E+04   -.853E-01 0.533E-14 0.251E+04   -.227E-02 0.000E+00 0.340E+01   -.139E-01 0.448E-12 -.217E-01
   -.308E-01 -.220E-11 0.101E+04   0.749E-02 -.209E-13 -.101E+04   0.307E-03 0.000E+00 -.173E+01   0.235E-01 0.151E-12 0.796E-01
   0.122E-01 0.439E-12 0.101E+04   -.388E-02 -.140E-13 -.101E+04   0.383E-03 0.000E+00 -.173E+01   -.879E-02 -.488E-12 0.965E-01
   -.126E-01 -.790E-12 0.202E+04   0.152E-02 -.118E-14 -.205E+04   -.181E-03 0.000E+00 0.277E+02   0.112E-01 -.159E-12 -.230E-01
   0.437E-02 -.146E-11 0.202E+04   -.881E-03 0.108E-13 -.205E+04   0.114E-03 0.000E+00 0.277E+02   -.352E-02 -.793E-13 -.196E-01
   -.591E-01 0.353E+02 0.548E+03   0.473E-01 -.370E+02 -.548E+03   -.529E-01 0.170E+01 0.500E-01   0.116E-01 -.125E-01 0.876E-01
   0.883E-01 0.353E+02 0.548E+03   -.624E-01 -.370E+02 -.548E+03   0.534E-01 0.170E+01 0.500E-01   -.265E-01 -.124E-01 0.843E-01
   0.298E-03 -.368E+01 0.165E+04   0.266E-02 0.179E+01 -.165E+04   -.537E-01 0.182E+01 -.529E+00   -.303E-02 0.340E-03 0.268E-01
   0.951E-02 -.367E+01 0.165E+04   -.483E-02 0.179E+01 -.165E+04   0.539E-01 0.182E+01 -.529E+00   -.477E-02 -.183E-03 0.233E-01
   -.601E-01 0.422E-12 0.925E+02   0.292E-01 0.600E-14 -.896E+02   0.243E-02 0.000E+00 -.258E+01   0.300E-01 0.154E-12 0.877E-01
   0.240E-01 -.271E-11 0.923E+02   -.136E-01 -.142E-13 -.894E+02   0.110E-02 0.000E+00 -.255E+01   -.113E-01 -.382E-12 0.985E-01
   -.243E-01 -.536E-12 0.118E+04   0.501E-02 0.146E-13 -.118E+04   -.520E-03 0.000E+00 0.280E+00   0.197E-01 -.146E-12 0.591E-01
   0.971E-02 -.193E-12 0.118E+04   -.313E-02 0.466E-14 -.118E+04   0.247E-03 0.000E+00 0.287E+00   -.665E-02 0.159E-12 0.665E-01
   -.591E-01 -.353E+02 0.548E+03   0.473E-01 0.370E+02 -.548E+03   -.529E-01 -.170E+01 0.500E-01   0.116E-01 0.125E-01 0.876E-01
   0.883E-01 -.353E+02 0.548E+03   -.624E-01 0.370E+02 -.548E+03   0.534E-01 -.170E+01 0.500E-01   -.265E-01 0.124E-01 0.843E-01
   0.298E-03 0.368E+01 0.165E+04   0.266E-02 -.179E+01 -.165E+04   -.537E-01 -.182E+01 -.529E+00   -.303E-02 -.340E-03 0.268E-01
   0.951E-02 0.367E+01 0.165E+04   -.483E-02 -.179E+01 -.165E+04   0.539E-01 -.182E+01 -.529E+00   -.477E-02 0.183E-03 0.233E-01
   0.293E-05 -.151E-11 -.118E+04   -.344E-01 -.577E-14 0.118E+04   0.107E-02 0.000E+00 -.764E+00   0.343E-01 -.756E-14 0.710E-01
   0.271E-01 -.260E-11 -.118E+04   -.140E-01 0.711E-14 0.118E+04   0.544E-03 0.000E+00 -.761E+00   -.137E-01 -.219E-12 0.666E-01
   -.335E-01 -.246E-12 -.967E+02   -.399E-02 0.244E-13 0.948E+02   0.508E-02 0.000E+00 0.184E+01   0.326E-01 -.168E-12 0.108E+00
   0.426E-02 -.616E-13 -.971E+02   0.109E-01 -.178E-13 0.952E+02   -.136E-02 0.000E+00 0.181E+01   -.121E-01 0.329E-12 0.105E+00
   0.262E+00 -.460E+01 -.167E+04   -.301E+00 0.275E+01 0.168E+04   0.481E-01 0.188E+01 -.470E+01   0.952E-02 -.168E-01 0.976E-03
   -.296E+00 -.459E+01 -.167E+04   0.364E+00 0.273E+01 0.168E+04   -.578E-01 0.188E+01 -.470E+01   -.242E-01 -.106E-01 0.349E-02
   -.758E+00 0.320E+02 -.554E+03   0.809E+00 -.336E+02 0.554E+03   -.712E-01 0.161E+01 -.200E+00   0.241E-01 0.620E-02 0.753E-01
   0.806E+00 0.320E+02 -.554E+03   -.839E+00 -.336E+02 0.554E+03   0.710E-01 0.161E+01 -.200E+00   -.406E-01 0.783E-02 0.746E-01
   -.199E+00 -.143E-11 -.202E+04   0.203E+00 0.148E-13 0.205E+04   0.327E-02 0.000E+00 -.281E+02   0.236E-01 0.300E-13 -.237E-01
   0.250E-01 0.524E-11 -.202E+04   -.145E-01 0.111E-14 0.205E+04   0.112E-02 0.000E+00 -.281E+02   -.115E-01 -.279E-12 -.504E-01
   0.109E+00 0.179E-11 -.100E+04   -.155E+00 -.124E-13 0.100E+04   0.761E-02 0.000E+00 0.243E+01   0.337E-01 0.124E-13 0.857E-01
   -.622E-01 -.214E-11 -.100E+04   0.956E-01 0.107E-13 0.100E+04   -.122E-01 0.000E+00 0.251E+01   -.159E-01 0.303E-12 0.920E-01
   0.262E+00 0.460E+01 -.167E+04   -.301E+00 -.275E+01 0.168E+04   0.481E-01 -.188E+01 -.470E+01   0.952E-02 0.168E-01 0.976E-03
   -.296E+00 0.459E+01 -.167E+04   0.364E+00 -.273E+01 0.168E+04   -.578E-01 -.188E+01 -.470E+01   -.242E-01 0.106E-01 0.349E-02
   -.758E+00 -.320E+02 -.554E+03   0.809E+00 0.336E+02 0.554E+03   -.712E-01 -.161E+01 -.200E+00   0.241E-01 -.620E-02 0.753E-01
   0.806E+00 -.320E+02 -.554E+03   -.839E+00 0.336E+02 0.554E+03   0.710E-01 -.161E+01 -.200E+00   -.406E-01 -.783E-02 0.746E-01
 -----------------------------------------------------------------------------------------------
   0.584E-01 -.361E-11 0.422E+02   -.168E-11 0.156E-12 0.523E-11   -.763E-01 0.222E-15 -.473E+02   -.382E-02 -.197E-13 0.526E+01
 
 
 POSITION                                       TOTAL-FORCE (eV/Angst)
 -----------------------------------------------------------------------------------
      1.60107      3.23512      4.85268        -0.009811     -0.000000     -0.328299
      4.80320      3.23512      4.85268         0.010460     -0.000000     -0.327901
      1.60107      0.00000      1.61756        -0.012138     -0.000000     -0.937785
      4.80320      0.00000      1.61756         0.012541     -0.000000     -0.937815
      0.00000      3.23512      1.61756         0.000076     -0.000000      1.615609
      3.20213      3.23512      1.61756         0.000272     -0.000000      1.626435
      0.00000      0.00000      4.85268        -0.001388     -0.000000     -0.360426
      3.20213      0.00000      4.85268         0.000578     -0.000000     -0.362222
      1.60087      3.23512     11.36097         0.014792     -0.000000      0.024021
      4.80325      3.23512     11.36103        -0.007901     -0.000000      0.023859
      1.60100     -0.00000      8.07791        -0.023113     -0.000000      0.007285
      4.80319     -0.00000      8.07793         0.022256     -0.000000      0.008138
     -0.00000      3.23512      8.10302         0.000582     -0.000000      0.009784
      3.20209      3.23512      8.10202         0.000497     -0.000000      0.030723
      0.00016     -0.00000     11.26253        -0.000767     -0.000000      0.044677
      3.20211     -0.00000     11.26415         0.006029     -0.000000      0.013663
      0.00000      3.23512      3.61324        -0.000286     -0.000000     -0.166752
      3.20213      3.23512      3.61324         0.000432     -0.000000     -0.171327
      0.00000      0.00000      0.37812         0.000249     -0.000000      0.794693
      3.20213      0.00000      0.37812         0.000169     -0.000000      0.784997
      1.60107      5.23080      4.85268        -0.053001     -0.037618     -0.033333
      4.80320      5.23080      4.85268         0.053630     -0.037608     -0.033346
      1.60107      1.99568      1.61756        -0.053611     -0.070210     -0.684863
      4.80320      1.99568      1.61756         0.054069     -0.070197     -0.684790
      0.00000      3.23512      6.09212        -0.000249     -0.000000      0.431931
      3.20213      3.23512      6.09212        -0.000140     -0.000000      0.429593
      0.00000      0.00000      2.85700         0.000668     -0.000000      0.244343
      3.20213      0.00000      2.85700         0.000111     -0.000000      0.248577
      1.60107      1.23944      4.85268        -0.053001      0.037618     -0.033333
      4.80320      1.23944      4.85268         0.053630      0.037608     -0.033346
      1.60107      4.47456      1.61756        -0.053611      0.070210     -0.684863
      4.80320      4.47456      1.61756         0.054069      0.070197     -0.684790
      0.00004      3.23512     10.09749        -0.000829     -0.000000     -0.042587
      3.20202      3.23512     10.09547         0.000924     -0.000000      0.013356
     -0.00011     -0.00000      6.83700         0.001335     -0.000000      0.012901
      3.20216     -0.00000      6.83682        -0.000309     -0.000000      0.006957
      1.60223      5.24031     11.40412         0.003538      0.010879      0.013261
      4.80231      5.24014     11.40404        -0.012704      0.018728      0.016184
      1.59882      1.99506      8.09633         0.004548      0.003633      0.024324
      4.80536      1.99518      8.09604        -0.003081      0.001216      0.024603
      0.00070      3.23512     12.55103        -0.040784     -0.000000     -0.008673
      3.20205      3.23512     12.55091         0.000354     -0.000000      0.008844
     -0.00038     -0.00000      9.30611         0.004637     -0.000000     -0.024382
      3.20191     -0.00000      9.30693         0.003353     -0.000000      0.005749
      1.60223      1.22993     11.40412         0.003538     -0.010879      0.013261
      4.80231      1.23011     11.40404        -0.012704     -0.018728      0.016184
      1.59882      4.47518      8.09633         0.004548     -0.003633      0.024324
      4.80536      4.47506      8.09604        -0.003081     -0.001216      0.024603
      8.00533      3.23512      4.85268        -0.010405     -0.000000     -0.328162
     11.20747      3.23512      4.85268         0.010304     -0.000000     -0.328398
      8.00533      0.00000      1.61756        -0.011910     -0.000000     -0.938061
     11.20747      0.00000      1.61756         0.012304     -0.000000     -0.937984
      6.40427      3.23512      1.61756         0.000356     -0.000000      1.615797
      9.60640      3.23512      1.61756         0.000182     -0.000000      1.627106
      6.40427      0.00000      4.85268         0.000979     -0.000000     -0.356787
      9.60640      0.00000      4.85268        -0.000318     -0.000000     -0.359015
      8.00526      3.23512     11.36099         0.002867     -0.000000      0.031665
     11.20770      3.23512     11.36105        -0.007658     -0.000000      0.029567
      8.00533     -0.00000      8.07795        -0.015771     -0.000000      0.018033
     11.20759     -0.00000      8.07789         0.005166     -0.000000      0.019159
      6.40437      3.23512      8.10306        -0.003457     -0.000000      0.008689
      9.60649      3.23512      8.10196        -0.000828     -0.000000      0.037542
      6.40427     -0.00000     11.26281         0.000921     -0.000000      0.038332
      9.60660     -0.00000     11.26423        -0.006820     -0.000000      0.029554
      6.40427      3.23512      3.61324         0.000797     -0.000000     -0.166711
      9.60640      3.23512      3.61324         0.000183     -0.000000     -0.171536
      6.40427      0.00000      0.37812         0.000211     -0.000000      0.794538
      9.60640      0.00000      0.37812         0.000310     -0.000000      0.784855
      8.00533      5.23080      4.85268        -0.052803     -0.037441     -0.033179
     11.20747      5.23080      4.85268         0.053050     -0.037444     -0.033305
      8.00533      1.99568      1.61756        -0.053550     -0.070212     -0.684597
     11.20747      1.99568      1.61756         0.054001     -0.070229     -0.684666
      6.40427      3.23512      6.09212         0.001684     -0.000000      0.432009
      9.60640      3.23512      6.09212         0.000479     -0.000000      0.430621
      6.40427      0.00000      2.85700         0.000049     -0.000000      0.244629
      9.60640      0.00000      2.85700         0.000404     -0.000000      0.248941
      8.00533      1.23944      4.85268        -0.052803      0.037441     -0.033179
     11.20747      1.23944      4.85268         0.053050      0.037444     -0.033305
      8.00533      4.47456      1.61756        -0.053550      0.070212     -0.684597
     11.20747      4.47456      1.61756         0.054001      0.070229     -0.684666
      6.40424      3.23512     10.09752         0.001236     -0.000000     -0.042115
      9.60653      3.23512     10.09567         0.000135     -0.000000      0.012448
      6.40435     -0.00000      6.83725         0.000447     -0.000000      0.008246
      9.60637     -0.00000      6.83698         0.001880     -0.000000      0.005935
      8.00625      5.24017     11.40373         0.018995      0.009434      0.018830
     11.20645      5.24020     11.40376        -0.013409      0.010038      0.019149
      8.00318      1.99510      8.09662         0.003936      0.005537      0.016997
     11.20974      1.99509      8.09657        -0.002643      0.005360      0.016737
      6.40363      3.23512     12.55101         0.030295     -0.000000     -0.001076
      9.60645      3.23512     12.55116         0.000349     -0.000000      0.007032
      6.40464     -0.00000      9.30609        -0.004418     -0.000000     -0.020714
      9.60599     -0.00000      9.30853         0.005514     -0.000000     -0.048119
      8.00625      1.23007     11.40373         0.018995     -0.009434      0.018830
     11.20645      1.23005     11.40376        -0.013409     -0.010038      0.019149
      8.00318      4.47514      8.09662         0.003936     -0.005537      0.016997
     11.20974      4.47515      8.09657        -0.002643     -0.005360      0.016737
 -----------------------------------------------------------------------------------
    total drift:                               -0.021714     -0.000000      0.178218


--------------------------------------------------------------------------------------------------------



  FREE ENERGIE OF THE ION-ELECTRON SYSTEM (eV)
  ---------------------------------------------------
  free  energy   TOTEN  =      -615.15291049 eV

  energy  without entropy=     -615.08025400  energy(sigma->0) =     -615.11658224
 
 d Force = 0.1204233E-02[ 0.315E-03, 0.209E-02]  d Energy = 0.1324975E-02-0.121E-03
 d Force = 0.8705721E+02[ 0.870E+02, 0.871E+02]  d Ewald  = 0.8705721E+02-0.113E-05


--------------------------------------------------------------------------------------------------------


    POTLOK:  cpu time    0.0963: real time    0.0965


--------------------------------------------------------------------------------------------------------


 stress matrix after NEB project (eV)
    -17.95705      0.00000      0.01228
      0.00000    -10.37791      0.00000
      0.01228      0.00000     -3.53282
  FORCES: max atom, RMS     0.048434    0.018250
  FORCE total and by dimension    0.178810    0.048119
  Stress total and by dimension   21.038965   17.957055
 Conjugate gradient step on ions:
 trial-energy change:   -0.001325  1 .order   -0.001204   -0.002094   -0.000315
  (g-gl).g = 0.229E-02      g.g   = 0.232E-02  gl.gl    = 0.583E-02
 g(Force)  = 0.232E-02   g(Stress)= 0.000E+00 ortho     = 0.414E-04
 gamma     =   0.39266
 trial     =   0.89434
 opt step  =   1.00295  (harmonic =   1.05254) maximal distance =0.00331359
 next E    =  -615.152930   (d E  =  -0.00134)


--------------------------------------------------------------------------------------------------------


  
 reached required accuracy - stopping structural energy minimisation
     LOOP+:  cpu time   77.2652: real time   77.5269
    4ORBIT:  cpu time    0.0000: real time    0.0000

 total amount of memory used by VASP MPI-rank0   127877. kBytes
=======================================================================

   base      :      30000. kBytes
   nonlr-proj:       5779. kBytes
   fftplans  :       3841. kBytes
   grid      :      10919. kBytes
   one-center:        311. kBytes
   wavefun   :      77027. kBytes
 
  
  
 General timing and accounting informations for this job:
 ========================================================
  
                  Total CPU time used (sec):     1206.423
                            User time (sec):     1179.996
                          System time (sec):       26.427
                         Elapsed time (sec):     1210.334
  
                   Maximum memory used (kb):      202160.
                   Average memory used (kb):           0.
  
                          Minor page faults:        85794
                          Major page faults:          196
                 Voluntary context switches:         2365
