 100 100   0   0
  0.2144868E+02  0.1280853E-08  0.6470243E-09  0.2588097E-08  0.5000000E-15
  1.000000000000000E-004
  CAR 
 unknown system                          
      8.05164040    -27.33792792  301     -0.27753992      1.00000000
    -27.338  0.0000E+00  0.0000E+00
    -27.220  0.0000E+00  0.0000E+00
    -27.102  0.0000E+00  0.0000E+00
    -26.984  0.0000E+00  0.0000E+00
    -26.866  0.0000E+00  0.0000E+00
    -26.748  0.0000E+00  0.0000E+00
    -26.630  0.0000E+00  0.0000E+00
    -26.512  0.0000E+00  0.0000E+00
    -26.394  0.0000E+00  0.0000E+00
    -26.276  0.0000E+00  0.0000E+00
    -26.158  0.0000E+00  0.0000E+00
    -26.040  0.0000E+00  0.0000E+00
    -25.922  0.3262E-09  0.3848E-10
    -25.804  0.2310E-03  0.2725E-04
    -25.686  0.1193E-01  0.1435E-02
    -25.568  0.1543E-02  0.1617E-02
    -25.450  0.3683E-07  0.1617E-02
    -25.333  0.2130E-16  0.1617E-02
    -25.215  0.0000E+00  0.1617E-02
    -25.097  0.0000E+00  0.1617E-02
    -24.979  0.0000E+00  0.1617E-02
    -24.861  0.0000E+00  0.1617E-02
    -24.743  0.0000E+00  0.1617E-02
    -24.625  0.0000E+00  0.1617E-02
    -24.507  0.0000E+00  0.1617E-02
    -24.389  0.0000E+00  0.1617E-02
    -24.271  0.0000E+00  0.1617E-02
    -24.153  0.0000E+00  0.1617E-02
    -24.035  0.0000E+00  0.1617E-02
    -23.917  0.0000E+00  0.1617E-02
    -23.799  0.0000E+00  0.1617E-02
    -23.681  0.0000E+00  0.1617E-02
    -23.563  0.0000E+00  0.1617E-02
    -23.445  0.0000E+00  0.1617E-02
    -23.327  0.0000E+00  0.1617E-02
    -23.209  0.0000E+00  0.1617E-02
    -23.091  0.0000E+00  0.1617E-02
    -22.973  0.0000E+00  0.1617E-02
    -22.855  0.0000E+00  0.1617E-02
    -22.737  0.0000E+00  0.1617E-02
    -22.619  0.0000E+00  0.1617E-02
    -22.501  0.0000E+00  0.1617E-02
    -22.383  0.0000E+00  0.1617E-02
    -22.265  0.0000E+00  0.1617E-02
    -22.147  0.0000E+00  0.1617E-02
    -22.029  0.0000E+00  0.1617E-02
    -21.912  0.0000E+00  0.1617E-02
    -21.794  0.0000E+00  0.1617E-02
    -21.676  0.0000E+00  0.1617E-02
    -21.558  0.0000E+00  0.1617E-02
    -21.440  0.0000E+00  0.1617E-02
    -21.322  0.0000E+00  0.1617E-02
    -21.204  0.1200E-09  0.1617E-02
    -21.086  0.4368E-04  0.1622E-02
    -20.968  0.2654E-02  0.1935E-02
    -20.850  0.3590E-02  0.2359E-02
    -20.732  0.1353E-01  0.3954E-02
    -20.614  0.9721E-02  0.5101E-02
    -20.496  0.1980E-01  0.7436E-02
    -20.378  0.3059E-01  0.1105E-01
    -20.260  0.3057E-01  0.1465E-01
    -20.142  0.3660E-01  0.1897E-01
    -20.024  0.4172E-01  0.2389E-01
    -19.906  0.6350E-01  0.3138E-01
    -19.788  0.7783E-01  0.4056E-01
    -19.670  0.7360E-01  0.4925E-01
    -19.552  0.7817E-01  0.5847E-01
    -19.434  0.1120E+00  0.7167E-01
    -19.316  0.1093E+00  0.8457E-01
    -19.198  0.4376E-01  0.8973E-01
    -19.080  0.1969E-01  0.9205E-01
    -18.962  0.8960E-03  0.9216E-01
    -18.844  0.5874E-07  0.9216E-01
    -18.726  0.1875E-15  0.9216E-01
    -18.609  0.2536E-18  0.9216E-01
    -18.491  0.1655E-08  0.9216E-01
    -18.373  0.4421E-03  0.9221E-01
    -18.255  0.2466E-01  0.9512E-01
    -18.137  0.3630E-01  0.9940E-01
    -18.019  0.2070E-01  0.1018E+00
    -17.901  0.3126E-01  0.1055E+00
    -17.783  0.2359E-01  0.1083E+00
    -17.665  0.1146E-03  0.1083E+00
    -17.547  0.9647E-10  0.1083E+00
    -17.429  0.0000E+00  0.1083E+00
    -17.311  0.0000E+00  0.1083E+00
    -17.193  0.0000E+00  0.1083E+00
    -17.075  0.0000E+00  0.1083E+00
    -16.957  0.0000E+00  0.1083E+00
    -16.839  0.0000E+00  0.1083E+00
    -16.721  0.0000E+00  0.1083E+00
    -16.603  0.0000E+00  0.1083E+00
    -16.485  0.0000E+00  0.1083E+00
    -16.367  0.0000E+00  0.1083E+00
    -16.249  0.0000E+00  0.1083E+00
    -16.131  0.0000E+00  0.1083E+00
    -16.013  0.0000E+00  0.1083E+00
    -15.895  0.0000E+00  0.1083E+00
    -15.777  0.0000E+00  0.1083E+00
    -15.659  0.0000E+00  0.1083E+00
    -15.541  0.0000E+00  0.1083E+00
    -15.423  0.0000E+00  0.1083E+00
    -15.305  0.0000E+00  0.1083E+00
    -15.188  0.0000E+00  0.1083E+00
    -15.070  0.0000E+00  0.1083E+00
    -14.952  0.0000E+00  0.1083E+00
    -14.834  0.0000E+00  0.1083E+00
    -14.716  0.0000E+00  0.1083E+00
    -14.598  0.6696E-15  0.1083E+00
    -14.480  0.2742E-06  0.1083E+00
    -14.362  0.3020E-02  0.1087E+00
    -14.244  0.1061E-01  0.1099E+00
    -14.126  0.7056E-04  0.1099E+00
    -14.008  0.2457E-10  0.1099E+00
    -13.890  0.0000E+00  0.1099E+00
    -13.772  0.0000E+00  0.1099E+00
    -13.654  0.0000E+00  0.1099E+00
    -13.536  0.0000E+00  0.1099E+00
    -13.418  0.0000E+00  0.1099E+00
    -13.300  0.0000E+00  0.1099E+00
    -13.182  0.0000E+00  0.1099E+00
    -13.064  0.0000E+00  0.1099E+00
    -12.946  0.0000E+00  0.1099E+00
    -12.828  0.0000E+00  0.1099E+00
    -12.710  0.0000E+00  0.1099E+00
    -12.592  0.0000E+00  0.1099E+00
    -12.474  0.0000E+00  0.1099E+00
    -12.356  0.0000E+00  0.1099E+00
    -12.238  0.0000E+00  0.1099E+00
    -12.120  0.0000E+00  0.1099E+00
    -12.002  0.0000E+00  0.1099E+00
    -11.884  0.0000E+00  0.1099E+00
    -11.767  0.0000E+00  0.1099E+00
    -11.649  0.0000E+00  0.1099E+00
    -11.531  0.0000E+00  0.1099E+00
    -11.413  0.0000E+00  0.1099E+00
    -11.295  0.0000E+00  0.1099E+00
    -11.177  0.0000E+00  0.1099E+00
    -11.059  0.0000E+00  0.1099E+00
    -10.941  0.0000E+00  0.1099E+00
    -10.823  0.0000E+00  0.1099E+00
    -10.705  0.0000E+00  0.1099E+00
    -10.587  0.0000E+00  0.1099E+00
    -10.469  0.0000E+00  0.1099E+00
    -10.351  0.0000E+00  0.1099E+00
    -10.233  0.0000E+00  0.1099E+00
    -10.115  0.0000E+00  0.1099E+00
     -9.997  0.0000E+00  0.1099E+00
     -9.879  0.0000E+00  0.1099E+00
     -9.761  0.7681E-14  0.1099E+00
     -9.643  0.4827E-06  0.1099E+00
     -9.525  0.1464E-02  0.1101E+00
     -9.407  0.1116E-01  0.1114E+00
     -9.289  0.5663E-02  0.1121E+00
     -9.171  0.8855E-02  0.1131E+00
     -9.053  0.1266E-01  0.1146E+00
     -8.935  0.8192E-02  0.1156E+00
     -8.817  0.2680E-01  0.1188E+00
     -8.699  0.1302E-01  0.1203E+00
     -8.581  0.3264E-01  0.1242E+00
     -8.463  0.3408E-01  0.1282E+00
     -8.346  0.2605E-01  0.1312E+00
     -8.228  0.4722E-01  0.1368E+00
     -8.110  0.5865E-01  0.1437E+00
     -7.992  0.4705E-01  0.1493E+00
     -7.874  0.6040E-01  0.1564E+00
     -7.756  0.1135E+00  0.1698E+00
     -7.638  0.9619E-01  0.1811E+00
     -7.520  0.7138E-01  0.1896E+00
     -7.402  0.5739E-01  0.1963E+00
     -7.284  0.4982E-01  0.2022E+00
     -7.166  0.4812E-01  0.2079E+00
     -7.048  0.4604E-01  0.2133E+00
     -6.930  0.4056E-01  0.2181E+00
     -6.812  0.4723E-01  0.2237E+00
     -6.694  0.4198E-01  0.2286E+00
     -6.576  0.3245E-01  0.2325E+00
     -6.458  0.3545E-01  0.2366E+00
     -6.340  0.4127E-01  0.2415E+00
     -6.222  0.5333E-01  0.2478E+00
     -6.104  0.4613E-01  0.2532E+00
     -5.986  0.5279E-01  0.2595E+00
     -5.868  0.5480E-01  0.2659E+00
     -5.750  0.5000E-01  0.2718E+00
     -5.632  0.6841E-01  0.2799E+00
     -5.514  0.7384E-01  0.2886E+00
     -5.396  0.6306E-01  0.2961E+00
     -5.278  0.6626E-01  0.3039E+00
     -5.160  0.6053E-01  0.3110E+00
     -5.042  0.6787E-01  0.3190E+00
     -4.925  0.5086E-01  0.3250E+00
     -4.807  0.5636E-01  0.3317E+00
     -4.689  0.7269E-01  0.3402E+00
     -4.571  0.5878E-01  0.3472E+00
     -4.453  0.4294E-01  0.3522E+00
     -4.335  0.4390E-01  0.3574E+00
     -4.217  0.4699E-01  0.3630E+00
     -4.099  0.5227E-01  0.3691E+00
     -3.981  0.4106E-01  0.3740E+00
     -3.863  0.5173E-01  0.3801E+00
     -3.745  0.5974E-01  0.3871E+00
     -3.627  0.4689E-01  0.3927E+00
     -3.509  0.3213E-01  0.3964E+00
     -3.391  0.3953E-01  0.4011E+00
     -3.273  0.5346E-01  0.4074E+00
     -3.155  0.5310E-01  0.4137E+00
     -3.037  0.5576E-01  0.4203E+00
     -2.919  0.3460E-01  0.4243E+00
     -2.801  0.3262E-01  0.4282E+00
     -2.683  0.3065E-01  0.4318E+00
     -2.565  0.3193E-01  0.4356E+00
     -2.447  0.2661E-01  0.4387E+00
     -2.329  0.3390E-01  0.4427E+00
     -2.211  0.5567E-01  0.4493E+00
     -2.093  0.5497E-01  0.4558E+00
     -1.975  0.8313E-01  0.4656E+00
     -1.857  0.9363E-01  0.4766E+00
     -1.739  0.7205E-01  0.4851E+00
     -1.622  0.7681E-01  0.4942E+00
     -1.504  0.6890E-01  0.5023E+00
     -1.386  0.7016E-01  0.5106E+00
     -1.268  0.5096E-01  0.5166E+00
     -1.150  0.3404E-01  0.5206E+00
     -1.032  0.3789E-01  0.5251E+00
     -0.914  0.4951E-01  0.5309E+00
     -0.796  0.4594E-01  0.5363E+00
     -0.678  0.5067E-01  0.5423E+00
     -0.560  0.4895E-01  0.5481E+00
     -0.442  0.5825E-01  0.5549E+00
     -0.324  0.4290E-01  0.5600E+00
     -0.206  0.6352E-01  0.5675E+00
     -0.088  0.6045E-01  0.5746E+00
      0.030  0.5491E-01  0.5811E+00
      0.148  0.4935E-01  0.5869E+00
      0.266  0.4668E-01  0.5924E+00
      0.384  0.3775E-01  0.5969E+00
      0.502  0.1971E-01  0.5992E+00
      0.620  0.1617E-01  0.6011E+00
      0.738  0.2340E-01  0.6039E+00
      0.856  0.1285E-01  0.6054E+00
      0.974  0.9080E-02  0.6065E+00
      1.092  0.8521E-02  0.6075E+00
      1.210  0.2356E-01  0.6103E+00
      1.328  0.2401E-01  0.6131E+00
      1.446  0.1316E-01  0.6146E+00
      1.564  0.1887E-01  0.6169E+00
      1.682  0.2049E-01  0.6193E+00
      1.799  0.2115E-01  0.6218E+00
      1.917  0.3041E-01  0.6254E+00
      2.035  0.1412E-01  0.6270E+00
      2.153  0.3593E-01  0.6313E+00
      2.271  0.3696E-01  0.6356E+00
      2.389  0.4364E-01  0.6408E+00
      2.507  0.1644E-01  0.6427E+00
      2.625  0.2830E-01  0.6461E+00
      2.743  0.3382E-01  0.6500E+00
      2.861  0.2984E-01  0.6536E+00
      2.979  0.2212E-01  0.6562E+00
      3.097  0.3422E-01  0.6602E+00
      3.215  0.3934E-01  0.6649E+00
      3.333  0.4497E-01  0.6702E+00
      3.451  0.3537E-01  0.6743E+00
      3.569  0.3525E-01  0.6785E+00
      3.687  0.3542E-01  0.6827E+00
      3.805  0.4559E-01  0.6880E+00
      3.923  0.3694E-01  0.6924E+00
      4.041  0.1233E-01  0.6939E+00
      4.159  0.1270E-01  0.6954E+00
      4.277  0.9944E-02  0.6965E+00
      4.395  0.2689E-02  0.6968E+00
      4.513  0.1969E-02  0.6971E+00
      4.631  0.7953E-02  0.6980E+00
      4.749  0.7020E-02  0.6988E+00
      4.867  0.7276E-02  0.6997E+00
      4.985  0.3520E-02  0.7001E+00
      5.103  0.3111E-02  0.7005E+00
      5.220  0.1004E-01  0.7017E+00
      5.338  0.9949E-02  0.7028E+00
      5.456  0.2481E-02  0.7031E+00
      5.574  0.1104E-02  0.7033E+00
      5.692  0.8830E-02  0.7043E+00
      5.810  0.1044E-01  0.7055E+00
      5.928  0.9034E-02  0.7066E+00
      6.046  0.3585E-02  0.7070E+00
      6.164  0.1499E-01  0.7088E+00
      6.282  0.8044E-02  0.7097E+00
      6.400  0.6211E-02  0.7105E+00
      6.518  0.7713E-02  0.7114E+00
      6.636  0.1088E-03  0.7114E+00
      6.754  0.1124E-09  0.7114E+00
      6.872  0.0000E+00  0.7114E+00
      6.990  0.0000E+00  0.7114E+00
      7.108  0.0000E+00  0.7114E+00
      7.226  0.0000E+00  0.7114E+00
      7.344  0.0000E+00  0.7114E+00
      7.462  0.0000E+00  0.7114E+00
      7.580  0.0000E+00  0.7114E+00
      7.698  0.0000E+00  0.7114E+00
      7.816  0.0000E+00  0.7114E+00
      7.934  0.0000E+00  0.7114E+00
      8.052  0.0000E+00  0.7114E+00
