       N       E                     dE             d eps       ncg     rms          rms(c)
DAV:   1     0.766812404585E+04    0.76681E+04   -0.31586E+05  3520   0.139E+03
DAV:   2     0.495022392703E+03   -0.71731E+04   -0.66512E+04  3680   0.406E+02
DAV:   3    -0.724553985785E+03   -0.12196E+04   -0.11738E+04  5040   0.168E+02
DAV:   4    -0.780548244481E+03   -0.55994E+02   -0.54618E+02  4360   0.369E+01
DAV:   5    -0.782320192030E+03   -0.17719E+01   -0.17607E+01  4560   0.691E+00    0.172E+02
RMM:   6    -0.708234531391E+03    0.74086E+02   -0.73291E+02  3578   0.406E+01    0.122E+02
RMM:   7    -0.115078317597E+04   -0.44255E+03   -0.41493E+02  3844   0.224E+01    0.308E+02
RMM:   8    -0.928867502619E+03    0.22192E+03   -0.40430E+01  3649   0.119E+01    0.244E+02
RMM:   9    -0.958990134338E+03   -0.30123E+02   -0.14867E+02  3574   0.167E+01    0.272E+02
RMM:  10    -0.860811544708E+03    0.98179E+02   -0.84491E+01  3692   0.112E+01    0.153E+02
RMM:  11    -0.750618565713E+03    0.11019E+03   -0.33206E+01  3549   0.835E+00    0.143E+02
RMM:  12    -0.674669358314E+03    0.75949E+02   -0.80192E+01  3523   0.137E+01    0.798E+01
RMM:  13    -0.663888137633E+03    0.10781E+02   -0.14778E+01  3706   0.539E+00    0.688E+01
RMM:  14    -0.655866567286E+03    0.80216E+01   -0.27936E+00  3768   0.238E+00    0.649E+01
RMM:  15    -0.645859857114E+03    0.10007E+02   -0.21815E+00  3523   0.213E+00    0.440E+01
RMM:  16    -0.642078678999E+03    0.37812E+01   -0.26464E+00  3531   0.234E+00    0.396E+01
RMM:  17    -0.639537737161E+03    0.25409E+01   -0.20731E+00  3543   0.209E+00    0.298E+01
RMM:  18    -0.637423918414E+03    0.21138E+01   -0.75777E-01  3683   0.123E+00    0.248E+01
RMM:  19    -0.637234121608E+03    0.18980E+00   -0.81207E-02  3796   0.501E-01    0.240E+01
RMM:  20    -0.637278325824E+03   -0.44204E-01   -0.78397E-02  3541   0.354E-01    0.241E+01
RMM:  21    -0.636507274002E+03    0.77105E+00   -0.48251E-01  3520   0.105E+00    0.198E+01
RMM:  22    -0.636218550424E+03    0.28872E+00   -0.48327E-01  3525   0.103E+00    0.164E+01
RMM:  23    -0.636063420929E+03    0.15513E+00   -0.56080E-01  3526   0.114E+00    0.123E+01
RMM:  24    -0.635979178326E+03    0.84243E-01   -0.21265E-01  3638   0.714E-01    0.125E+01
RMM:  25    -0.635830487101E+03    0.14869E+00   -0.67358E-02  3627   0.411E-01    0.100E+01
RMM:  26    -0.635738781811E+03    0.91705E-01   -0.35776E-02  3536   0.277E-01    0.900E+00
RMM:  27    -0.635627314999E+03    0.11147E+00   -0.18606E-02  3525   0.214E-01    0.661E+00
RMM:  28    -0.635605785357E+03    0.21530E-01   -0.31761E-02  3520   0.268E-01    0.606E+00
RMM:  29    -0.635604186511E+03    0.15988E-02   -0.33461E-02  3531   0.310E-01    0.418E+00
RMM:  30    -0.635569778526E+03    0.34408E-01   -0.11531E-02  3540   0.177E-01    0.435E+00
RMM:  31    -0.635576330650E+03   -0.65521E-02   -0.76361E-03  3527   0.158E-01    0.382E+00
RMM:  32    -0.635571627814E+03    0.47028E-02   -0.80489E-03  3520   0.150E-01    0.373E+00
RMM:  33    -0.635563797988E+03    0.78298E-02   -0.28714E-03  3523   0.105E-01    0.373E+00
RMM:  34    -0.635547827045E+03    0.15971E-01   -0.83715E-04  3521   0.518E-02    0.303E+00
RMM:  35    -0.635543872688E+03    0.39544E-02   -0.14370E-03  3521   0.611E-02    0.284E+00
RMM:  36    -0.635536912302E+03    0.69604E-02   -0.51025E-04  3614   0.366E-02    0.254E+00
RMM:  37    -0.635535848425E+03    0.10639E-02   -0.30887E-04  3539   0.287E-02    0.228E+00
RMM:  38    -0.635532743072E+03    0.31054E-02   -0.42101E-04  3523   0.340E-02    0.186E+00
RMM:  39    -0.635526763676E+03    0.59794E-02   -0.13673E-03  3543   0.534E-02    0.127E+00
RMM:  40    -0.635523235885E+03    0.35278E-02   -0.84428E-04  3599   0.460E-02    0.108E+00
RMM:  41    -0.635522347310E+03    0.88857E-03   -0.27096E-04  3479   0.251E-02    0.956E-01
RMM:  42    -0.635520361177E+03    0.19861E-02   -0.27370E-04  3423   0.254E-02    0.731E-01
RMM:  43    -0.635518870771E+03    0.14904E-02   -0.26972E-04  3450   0.236E-02    0.591E-01
RMM:  44    -0.635517091801E+03    0.17790E-02   -0.47915E-04  3536   0.298E-02    0.327E-01
RMM:  45    -0.635516629768E+03    0.46203E-03   -0.18183E-04  3404   0.207E-02    0.190E-01
RMM:  46    -0.635516580070E+03    0.49698E-04   -0.49789E-05  2648   0.108E-02    0.162E-01
RMM:  47    -0.635516576887E+03    0.31838E-05   -0.29965E-05  2364   0.879E-03
   1 F= -.63551658E+03 E0= -.63546213E+03  d E =-.108899E+00
       N       E                     dE             d eps       ncg     rms          rms(c)
DAV:   1    -0.635511541096E+03    0.50390E-02   -0.91260E-01  3720   0.938E-01    0.310E-01
RMM:   2    -0.635531785570E+03   -0.20244E-01   -0.12950E-02  3505   0.165E-01    0.328E+00
RMM:   3    -0.635500960255E+03    0.30825E-01   -0.32530E-03  3528   0.109E-01    0.957E-01
RMM:   4    -0.635513469627E+03   -0.12509E-01   -0.24312E-03  3520   0.893E-02    0.837E-01
RMM:   5    -0.635513895387E+03   -0.42576E-03   -0.14718E-03  3477   0.604E-02    0.921E-01
RMM:   6    -0.635512565146E+03    0.13302E-02   -0.54273E-04  3412   0.421E-02    0.379E-01
RMM:   7    -0.635512523716E+03    0.41430E-04   -0.38348E-04  3460   0.293E-02    0.355E-01
RMM:   8    -0.635512295651E+03    0.22806E-03   -0.28585E-04  3387   0.254E-02    0.193E-01
RMM:   9    -0.635512335606E+03   -0.39955E-04   -0.15593E-04  3095   0.226E-02    0.151E-01
RMM:  10    -0.635512326483E+03    0.91227E-05   -0.28666E-05  2266   0.871E-03
   2 F= -.63551233E+03 E0= -.63545781E+03  d E =-.109032E+00
       N       E                     dE             d eps       ncg     rms          rms(c)
DAV:   1    -0.635510155084E+03    0.21805E-02   -0.36555E+00  3520   0.187E+00    0.622E-01
RMM:   2    -0.635519035158E+03   -0.88801E-02   -0.44742E-02  3504   0.310E-01    0.192E+00
RMM:   3    -0.635533139974E+03   -0.14105E-01   -0.53423E-03  3638   0.112E-01    0.409E+00
RMM:   4    -0.635502371227E+03    0.30769E-01   -0.77105E-03  3520   0.147E-01    0.159E+00
RMM:   5    -0.635515713298E+03   -0.13342E-01   -0.43530E-03  3523   0.121E-01    0.101E+00
RMM:   6    -0.635514705555E+03    0.10077E-02   -0.14238E-03  3518   0.575E-02    0.915E-01
RMM:   7    -0.635513297943E+03    0.14076E-02   -0.13938E-03  3518   0.613E-02    0.595E-01
RMM:   8    -0.635512571254E+03    0.72669E-03   -0.79328E-04  3520   0.458E-02    0.445E-01
RMM:   9    -0.635512421425E+03    0.14983E-03   -0.27765E-04  3317   0.279E-02    0.301E-01
RMM:  10    -0.635512292001E+03    0.12942E-03   -0.13364E-04  3142   0.190E-02    0.204E-01
RMM:  11    -0.635512227729E+03    0.64272E-04   -0.73205E-05  2913   0.150E-02    0.961E-02
RMM:  12    -0.635512253025E+03   -0.25296E-04   -0.70251E-05  2378   0.151E-02    0.808E-02
RMM:  13    -0.635512261923E+03   -0.88983E-05   -0.12114E-05  1927   0.664E-03
   3 F= -.63551226E+03 E0= -.63545790E+03  d E =-.108730E+00
       N       E                     dE             d eps       ncg     rms          rms(c)
DAV:   1    -0.635512475523E+03   -0.22250E-03   -0.18554E+00  4400   0.132E+00    0.371E-01
RMM:   2    -0.635516730826E+03   -0.42553E-02   -0.19216E-02  4356   0.206E-01    0.155E+00
RMM:   3    -0.635519390371E+03   -0.26595E-02   -0.27647E-03  4313   0.846E-02    0.259E+00
RMM:   4    -0.635507305520E+03    0.12085E-01   -0.36332E-03  4353   0.103E-01    0.133E+00
RMM:   5    -0.635514789155E+03   -0.74836E-02   -0.23843E-03  4375   0.903E-02    0.572E-01
RMM:   6    -0.635514483750E+03    0.30541E-03   -0.78931E-04  4351   0.473E-02    0.520E-01
RMM:   7    -0.635513921979E+03    0.56177E-03   -0.58797E-04  4354   0.375E-02    0.343E-01
RMM:   8    -0.635513727530E+03    0.19445E-03   -0.36460E-04  4204   0.282E-02    0.238E-01
RMM:   9    -0.635513656360E+03    0.71170E-04   -0.14433E-04  3932   0.218E-02    0.164E-01
RMM:  10    -0.635513566032E+03    0.90328E-04   -0.49768E-05  3429   0.122E-02    0.865E-02
RMM:  11    -0.635513514813E+03    0.51220E-04   -0.20519E-05  2572   0.915E-03    0.338E-02
RMM:  12    -0.635513508537E+03    0.62757E-05   -0.81758E-06  2294   0.594E-03
   4 F= -.63551351E+03 E0= -.63545906E+03  d E =-.108900E+00
       N       E                     dE             d eps       ncg     rms          rms(c)
DAV:   1    -0.635511972219E+03    0.15426E-02   -0.29264E+00  4480   0.146E+00    0.451E-01
RMM:   2    -0.635514084592E+03   -0.21124E-02   -0.31143E-02  4352   0.240E-01    0.352E-01
RMM:   3    -0.635515060305E+03   -0.97571E-03   -0.26901E-03  4489   0.760E-02    0.889E-01
RMM:   4    -0.635520711363E+03   -0.56511E-02   -0.12359E-03  4225   0.495E-02    0.245E+00
RMM:   5    -0.635508814567E+03    0.11897E-01   -0.27300E-03  4395   0.905E-02    0.988E-01
RMM:   6    -0.635516871396E+03   -0.80568E-02   -0.28723E-03  4400   0.941E-02    0.103E+00
RMM:   7    -0.635514026957E+03    0.28444E-02   -0.97389E-04  4267   0.524E-02    0.408E-01
RMM:   8    -0.635513574684E+03    0.45227E-03   -0.29262E-04  4228   0.325E-02    0.137E-01
RMM:   9    -0.635513650996E+03   -0.76313E-04   -0.10311E-04  3814   0.161E-02    0.175E-01
RMM:  10    -0.635513592097E+03    0.58900E-04   -0.53211E-05  3478   0.113E-02    0.133E-01
RMM:  11    -0.635513518616E+03    0.73481E-04   -0.24984E-05  2745   0.935E-03    0.461E-02
RMM:  12    -0.635513520187E+03   -0.15708E-05   -0.16743E-05  2430   0.740E-03
   5 F= -.63551352E+03 E0= -.63545907E+03  d E =-.108908E+00
       N       E                     dE             d eps       ncg     rms          rms(c)
DAV:   1    -0.635515085565E+03   -0.15669E-02   -0.18762E+00  3520   0.134E+00    0.387E-01
RMM:   2    -0.635520650741E+03   -0.55652E-02   -0.21618E-02  3499   0.218E-01    0.944E-01
RMM:   3    -0.635520604422E+03    0.46319E-04   -0.16077E-03  3521   0.673E-02    0.182E+00
RMM:   4    -0.635511811105E+03    0.87933E-02   -0.13573E-03  3290   0.657E-02    0.513E-01
RMM:   5    -0.635520308947E+03   -0.84978E-02   -0.12640E-03  3511   0.612E-02    0.109E+00
RMM:   6    -0.635519633081E+03    0.67587E-03   -0.13986E-03  3493   0.561E-02    0.102E+00
RMM:   7    -0.635516867469E+03    0.27656E-02   -0.13053E-03  3520   0.558E-02    0.411E-01
RMM:   8    -0.635516379223E+03    0.48825E-03   -0.67610E-04  3520   0.473E-02    0.280E-01
RMM:   9    -0.635516162542E+03    0.21668E-03   -0.22359E-04  3288   0.236E-02    0.195E-01
RMM:  10    -0.635516117376E+03    0.45166E-04   -0.95356E-05  2800   0.168E-02    0.952E-02
RMM:  11    -0.635516096989E+03    0.20387E-04   -0.29454E-05  2189   0.104E-02    0.674E-02
RMM:  12    -0.635516089598E+03    0.73909E-05   -0.89721E-06  1869   0.640E-03
   6 F= -.63551609E+03 E0= -.63546159E+03  d E =-.109009E+00
       N       E                     dE             d eps       ncg     rms          rms(c)
DAV:   1    -0.635513369194E+03    0.27278E-02   -0.37554E+00  3520   0.190E+00    0.607E-01
RMM:   2    -0.635533058664E+03   -0.19689E-01   -0.52719E-02  3518   0.343E-01    0.207E+00
RMM:   3    -0.635528467806E+03    0.45909E-02   -0.45073E-03  3589   0.989E-02    0.316E+00
RMM:   4    -0.635510474082E+03    0.17994E-01   -0.35780E-03  3440   0.978E-02    0.239E+00
RMM:   5    -0.635520468884E+03   -0.99948E-02   -0.36568E-03  3520   0.113E-01    0.150E+00
RMM:   6    -0.635522586394E+03   -0.21175E-02   -0.16584E-03  3527   0.627E-02    0.192E+00
RMM:   7    -0.635515843605E+03    0.67428E-02   -0.31076E-03  3523   0.835E-02    0.798E-01
RMM:   8    -0.635515213777E+03    0.62983E-03   -0.20519E-03  3521   0.805E-02    0.482E-01
RMM:   9    -0.635515076546E+03    0.13723E-03   -0.10688E-03  3511   0.545E-02    0.512E-01
RMM:  10    -0.635514429405E+03    0.64714E-03   -0.31534E-04  3263   0.300E-02    0.207E-01
RMM:  11    -0.635514421274E+03    0.81312E-05   -0.83448E-05  3087   0.162E-02
   7 F= -.63551442E+03 E0= -.63546006E+03  d E =-.108726E+00
       N       E                     dE             d eps       ncg     rms          rms(c)
DAV:   1    -0.635511290882E+03    0.31385E-02   -0.18435E+00  3520   0.135E+00    0.489E-01
RMM:   2    -0.635522784773E+03   -0.11494E-01   -0.27114E-02  3518   0.244E-01    0.220E+00
RMM:   3    -0.635528064347E+03   -0.52796E-02   -0.44516E-03  3555   0.108E-01    0.395E+00
RMM:   4    -0.635496009125E+03    0.32055E-01   -0.47627E-03  3520   0.126E-01    0.829E-01
RMM:   5    -0.635511357866E+03   -0.15349E-01   -0.17235E-03  3518   0.726E-02    0.100E+00
RMM:   6    -0.635519538263E+03   -0.81804E-02   -0.19472E-03  3521   0.616E-02    0.182E+00
RMM:   7    -0.635512682216E+03    0.68560E-02   -0.15095E-03  3504   0.644E-02    0.476E-01
RMM:   8    -0.635512581629E+03    0.10059E-03   -0.10539E-03  3518   0.597E-02    0.340E-01
RMM:   9    -0.635512205326E+03    0.37630E-03   -0.39864E-04  3440   0.353E-02    0.156E-01
RMM:  10    -0.635512203380E+03    0.19465E-05   -0.13456E-04  3141   0.199E-02    0.160E-01
RMM:  11    -0.635512128528E+03    0.74852E-04   -0.45731E-05  2530   0.119E-02    0.103E-01
RMM:  12    -0.635512114580E+03    0.13948E-04   -0.15600E-05  1936   0.823E-03    0.834E-02
RMM:  13    -0.635512109685E+03    0.48953E-05   -0.85316E-06  1836   0.592E-03
   8 F= -.63551211E+03 E0= -.63545773E+03  d E =-.108750E+00
       N       E                     dE             d eps       ncg     rms          rms(c)
DAV:   1    -0.635510379119E+03    0.17355E-02   -0.36540E+00  3520   0.187E+00    0.583E-01
RMM:   2    -0.635526035151E+03   -0.15656E-01   -0.44065E-02  3500   0.305E-01    0.306E+00
RMM:   3    -0.635513803365E+03    0.12232E-01   -0.59630E-03  3573   0.128E-01    0.326E+00
RMM:   4    -0.635507735962E+03    0.60674E-02   -0.70738E-03  3515   0.143E-01    0.182E+00
RMM:   5    -0.635514778750E+03   -0.70428E-02   -0.38895E-03  3513   0.115E-01    0.738E-01
RMM:   6    -0.635516748199E+03   -0.19694E-02   -0.14736E-03  3520   0.609E-02    0.108E+00
RMM:   7    -0.635513331406E+03    0.34168E-02   -0.12237E-03  3520   0.569E-02    0.474E-01
RMM:   8    -0.635512919637E+03    0.41177E-03   -0.88462E-04  3517   0.467E-02    0.315E-01
RMM:   9    -0.635512789370E+03    0.13027E-03   -0.35413E-04  3319   0.341E-02    0.254E-01
RMM:  10    -0.635512657829E+03    0.13154E-03   -0.12606E-04  3155   0.174E-02    0.172E-01
RMM:  11    -0.635512538296E+03    0.11953E-03   -0.54210E-05  2779   0.124E-02    0.709E-02
RMM:  12    -0.635512512876E+03    0.25420E-04   -0.18297E-05  2036   0.840E-03    0.459E-02
RMM:  13    -0.635512505452E+03    0.74246E-05   -0.13054E-05  1908   0.704E-03
   9 F= -.63551251E+03 E0= -.63545797E+03  d E =-.109065E+00
       N       E                     dE             d eps       ncg     rms          rms(c)
DAV:   1    -0.635512421509E+03    0.91367E-04   -0.18549E+00  4400   0.132E+00    0.385E-01
RMM:   2    -0.635519470700E+03   -0.70492E-02   -0.19609E-02  4354   0.208E-01    0.225E+00
RMM:   3    -0.635508848865E+03    0.10622E-01   -0.29223E-03  4347   0.918E-02    0.190E+00
RMM:   4    -0.635514721079E+03   -0.58722E-02   -0.37574E-03  4360   0.104E-01    0.122E+00
RMM:   5    -0.635514683792E+03    0.37287E-04   -0.20971E-03  4335   0.825E-02    0.474E-01
RMM:   6    -0.635515538136E+03   -0.85434E-03   -0.77590E-04  4361   0.436E-02    0.771E-01
RMM:   7    -0.635513922717E+03    0.16154E-02   -0.64996E-04  4350   0.411E-02    0.340E-01
RMM:   8    -0.635513776283E+03    0.14643E-03   -0.40188E-04  4226   0.317E-02    0.311E-01
RMM:   9    -0.635513497482E+03    0.27880E-03   -0.16989E-04  4004   0.225E-02    0.166E-01
RMM:  10    -0.635513448551E+03    0.48931E-04   -0.55008E-05  3497   0.133E-02    0.722E-02
RMM:  11    -0.635513441144E+03    0.74064E-05   -0.26330E-05  2644   0.101E-02
  10 F= -.63551344E+03 E0= -.63545900E+03  d E =-.108891E+00
       N       E                     dE             d eps       ncg     rms          rms(c)
DAV:   1    -0.635511923065E+03    0.15255E-02   -0.29254E+00  4480   0.146E+00    0.448E-01
RMM:   2    -0.635514446324E+03   -0.25233E-02   -0.31379E-02  4356   0.241E-01    0.675E-01
RMM:   3    -0.635541265012E+03   -0.26819E-01   -0.36005E-03  4507   0.798E-02    0.467E+00
RMM:   4    -0.635488387166E+03    0.52878E-01   -0.58193E-03  4396   0.128E-01    0.113E+00
RMM:   5    -0.635514692284E+03   -0.26305E-01   -0.33244E-03  4392   0.106E-01    0.596E-01
RMM:   6    -0.635514811292E+03   -0.11901E-03   -0.17896E-03  4400   0.655E-02    0.548E-01
RMM:   7    -0.635513801332E+03    0.10100E-02   -0.64679E-04  4314   0.351E-02    0.350E-01
RMM:   8    -0.635513479886E+03    0.32145E-03   -0.17251E-04  3991   0.212E-02    0.141E-01
RMM:   9    -0.635513565168E+03   -0.85282E-04   -0.98651E-05  3915   0.167E-02    0.172E-01
RMM:  10    -0.635513537615E+03    0.27553E-04   -0.46353E-05  3438   0.117E-02    0.143E-01
RMM:  11    -0.635513486240E+03    0.51375E-04   -0.18654E-05  2509   0.829E-03    0.966E-02
RMM:  12    -0.635513465016E+03    0.21224E-04   -0.14241E-05  2372   0.702E-03    0.420E-02
RMM:  13    -0.635513434745E+03    0.30272E-04   -0.17949E-05  2427   0.816E-03    0.351E-02
RMM:  14    -0.635513433824E+03    0.92108E-06   -0.65752E-06  2196   0.531E-03
  11 F= -.63551343E+03 E0= -.63545898E+03  d E =-.108905E+00
       N       E                     dE             d eps       ncg     rms          rms(c)
DAV:   1    -0.635515228145E+03   -0.17934E-02   -0.18761E+00  3520   0.133E+00    0.377E-01
RMM:   2    -0.635520229396E+03   -0.50013E-02   -0.20889E-02  3492   0.214E-01    0.934E-01
RMM:   3    -0.635519519458E+03    0.70994E-03   -0.14518E-03  3476   0.623E-02    0.139E+00
RMM:   4    -0.635518359317E+03    0.11601E-02   -0.16595E-03  3280   0.630E-02    0.157E+00
RMM:   5    -0.635517985415E+03    0.37390E-03   -0.21800E-03  3520   0.832E-02    0.912E-01
RMM:   6    -0.635520223763E+03   -0.22383E-02   -0.15458E-03  3519   0.645E-02    0.129E+00
RMM:   7    -0.635517028854E+03    0.31949E-02   -0.12479E-03  3509   0.543E-02    0.472E-01
RMM:   8    -0.635516494982E+03    0.53387E-03   -0.77227E-04  3515   0.515E-02    0.361E-01
RMM:   9    -0.635516219092E+03    0.27589E-03   -0.19913E-04  3284   0.231E-02    0.172E-01
RMM:  10    -0.635516202165E+03    0.16927E-04   -0.53911E-05  2535   0.128E-02    0.123E-01
RMM:  11    -0.635516237710E+03   -0.35546E-04   -0.28972E-05  2111   0.100E-02    0.754E-02
RMM:  12    -0.635516243467E+03   -0.57564E-05   -0.92477E-06  1888   0.604E-03
  12 F= -.63551624E+03 E0= -.63546177E+03  d E =-.108947E+00
       N       E                     dE             d eps       ncg     rms          rms(c)
DAV:   1    -0.635513169592E+03    0.30681E-02   -0.37543E+00  3520   0.190E+00    0.600E-01
RMM:   2    -0.635532399381E+03   -0.19230E-01   -0.52190E-02  3518   0.341E-01    0.205E+00
RMM:   3    -0.635533351871E+03   -0.95249E-03   -0.45807E-03  3567   0.103E-01    0.356E+00
RMM:   4    -0.635504469994E+03    0.28882E-01   -0.31275E-03  3452   0.105E-01    0.108E+00
RMM:   5    -0.635521020409E+03   -0.16550E-01   -0.21070E-03  3520   0.787E-02    0.162E+00
RMM:   6    -0.635524244266E+03   -0.32239E-02   -0.21406E-03  3533   0.654E-02    0.202E+00
RMM:   7    -0.635515538324E+03    0.87059E-02   -0.26230E-03  3518   0.778E-02    0.810E-01
RMM:   8    -0.635515171101E+03    0.36722E-03   -0.20657E-03  3521   0.840E-02    0.563E-01
RMM:   9    -0.635515240146E+03   -0.69045E-04   -0.10273E-03  3505   0.538E-02    0.617E-01
RMM:  10    -0.635514626611E+03    0.61353E-03   -0.31380E-04  3282   0.310E-02    0.385E-01
RMM:  11    -0.635514576852E+03    0.49759E-04   -0.76516E-05  3036   0.154E-02    0.337E-01
RMM:  12    -0.635514504384E+03    0.72468E-04   -0.36895E-05  2421   0.959E-03    0.214E-01
RMM:  13    -0.635514374869E+03    0.12952E-03   -0.67587E-05  2715   0.136E-02    0.780E-02
RMM:  14    -0.635514194652E+03    0.18022E-03   -0.71070E-05  2500   0.152E-02    0.896E-02
RMM:  15    -0.635514168056E+03    0.26596E-04   -0.43141E-05  2109   0.121E-02    0.651E-02
RMM:  16    -0.635514162052E+03    0.60045E-05   -0.42216E-06  1757   0.425E-03
  13 F= -.63551416E+03 E0= -.63545977E+03  d E =-.108793E+00
       N       E                     dE             d eps       ncg     rms          rms(c)
DAV:   1    -0.635527353325E+03   -0.13185E-01   -0.22262E+00  3760   0.143E+00    0.387E+00
RMM:   2    -0.639455521251E+03   -0.39282E+01   -0.10284E+00  3526   0.729E-01    0.160E+01
RMM:   3    -0.637350126403E+03    0.21054E+01   -0.43366E-01  3525   0.763E-01    0.189E+01
RMM:   4    -0.635820493476E+03    0.15296E+01   -0.18936E-01  3520   0.681E-01    0.756E+00
RMM:   5    -0.635614355560E+03    0.20614E+00   -0.73618E-02  3534   0.425E-01    0.654E+00
RMM:   6    -0.635497402957E+03    0.11695E+00   -0.18148E-02  3565   0.205E-01    0.449E+00
RMM:   7    -0.635487275009E+03    0.10128E-01   -0.31334E-03  3527   0.995E-02    0.358E+00
RMM:   8    -0.635486997551E+03    0.27746E-03   -0.17909E-03  3532   0.638E-02    0.207E+00
RMM:   9    -0.635511967280E+03   -0.24970E-01   -0.42067E-03  3520   0.861E-02    0.298E+00
RMM:  10    -0.635508169902E+03    0.37974E-02   -0.45897E-03  3516   0.132E-01    0.272E+00
RMM:  11    -0.635497737968E+03    0.10432E-01   -0.60190E-04  3444   0.402E-02    0.146E+00
RMM:  12    -0.635502794909E+03   -0.50569E-02   -0.68652E-04  3356   0.417E-02    0.251E-01
RMM:  13    -0.635511932030E+03   -0.91371E-02   -0.12044E-03  3257   0.622E-02    0.521E-01
RMM:  14    -0.635511475159E+03    0.45687E-03   -0.56301E-04  3138   0.397E-02    0.401E-01
RMM:  15    -0.635511364932E+03    0.11023E-03   -0.27731E-05  2177   0.887E-03    0.205E-01
RMM:  16    -0.635511317175E+03    0.47757E-04   -0.41177E-05  2181   0.120E-02    0.137E-01
RMM:  17    -0.635511352733E+03   -0.35558E-04   -0.18460E-05  2002   0.819E-03    0.109E-01
RMM:  18    -0.635511384813E+03   -0.32080E-04   -0.71916E-06  1851   0.531E-03    0.401E-02
RMM:  19    -0.635511423044E+03   -0.38231E-04   -0.13807E-05  1812   0.671E-03    0.117E-02
RMM:  20    -0.635511439475E+03   -0.16431E-04   -0.56821E-06  1672   0.452E-03    0.961E-03
RMM:  21    -0.635511446153E+03   -0.66778E-05   -0.75291E-07  1282   0.176E-03
  14 F= -.63551145E+03 E0= -.63545696E+03  d E =-.108975E+00
       N       E                     dE             d eps       ncg     rms          rms(c)
DAV:   1    -0.635563855810E+03   -0.52416E-01   -0.51574E+00  3680   0.165E+00    0.476E+00
RMM:   2    -0.640510951911E+03   -0.49471E+01   -0.26646E+00  3534   0.926E-01    0.170E+01
RMM:   3    -0.638564820327E+03    0.19461E+01   -0.72141E-01  3527   0.977E-01    0.209E+01
RMM:   4    -0.636232753757E+03    0.23321E+01   -0.41878E-01  3524   0.852E-01    0.978E+00
RMM:   5    -0.635759607450E+03    0.47315E+00   -0.10649E-01  3541   0.477E-01    0.851E+00
RMM:   6    -0.635444910979E+03    0.31470E+00   -0.48303E-02  3548   0.259E-01    0.403E+00
RMM:   7    -0.635469635035E+03   -0.24724E-01   -0.69403E-03  3549   0.137E-01    0.128E+00
RMM:   8    -0.635504072404E+03   -0.34437E-01   -0.50474E-03  3521   0.116E-01    0.160E+00
RMM:   9    -0.635504202257E+03   -0.12985E-03   -0.22311E-03  3571   0.620E-02    0.650E-01
RMM:  10    -0.635512825512E+03   -0.86233E-02   -0.15383E-03  3393   0.612E-02    0.152E+00
RMM:  11    -0.635515752201E+03   -0.29267E-02   -0.20765E-03  3483   0.782E-02    0.260E+00
RMM:  12    -0.635502301901E+03    0.13450E-01   -0.66795E-04  3165   0.488E-02    0.212E+00
RMM:  13    -0.635502965087E+03   -0.66319E-03   -0.54875E-04  3301   0.264E-02    0.184E+00
RMM:  14    -0.635511827591E+03   -0.88625E-02   -0.27559E-03  3377   0.101E-01    0.253E+00
RMM:  15    -0.635497056247E+03    0.14771E-01   -0.61662E-04  3115   0.425E-02    0.894E-01
RMM:  16    -0.635505784972E+03   -0.87287E-02   -0.52935E-04  3087   0.384E-02    0.661E-01
RMM:  17    -0.635509279177E+03   -0.34942E-02   -0.10023E-03  3096   0.590E-02    0.196E-01
RMM:  18    -0.635509253105E+03    0.26072E-04   -0.19383E-05  2001   0.719E-03    0.294E-02
RMM:  19    -0.635509348792E+03   -0.95687E-04   -0.67471E-05  2176   0.136E-02    0.317E-02
RMM:  20    -0.635509381187E+03   -0.32396E-04   -0.33370E-06  1611   0.338E-03    0.966E-02
RMM:  21    -0.635509392573E+03   -0.11385E-04   -0.76107E-06  1582   0.432E-03    0.909E-02
RMM:  22    -0.635509430093E+03   -0.37520E-04   -0.42850E-05  2052   0.106E-02    0.682E-02
RMM:  23    -0.635509444382E+03   -0.14289E-04   -0.14110E-06  1400   0.208E-03    0.122E-02
RMM:  24    -0.635509443756E+03    0.62600E-06   -0.44883E-06  1345   0.339E-03
  15 F= -.63550944E+03 E0= -.63545503E+03  d E =-.108837E+00
       N       E                     dE             d eps       ncg     rms          rms(c)
DAV:   1    -0.635534265817E+03   -0.24821E-01   -0.25431E+00  4680   0.112E+00    0.396E+00
RMM:   2    -0.639598887501E+03   -0.40646E+01   -0.10702E+00  4408   0.713E-01    0.160E+01
RMM:   3    -0.637512175838E+03    0.20867E+01   -0.45931E-01  4405   0.785E-01    0.196E+01
RMM:   4    -0.635852970037E+03    0.16592E+01   -0.19898E-01  4400   0.699E-01    0.766E+00
RMM:   5    -0.635635974042E+03    0.21700E+00   -0.74632E-02  4417   0.425E-01    0.659E+00
RMM:   6    -0.635512427775E+03    0.12355E+00   -0.20701E-02  4455   0.211E-01    0.480E+00
RMM:   7    -0.635491982500E+03    0.20445E-01   -0.38351E-03  4414   0.108E-01    0.391E+00
RMM:   8    -0.635490458633E+03    0.15239E-02   -0.13488E-03  4430   0.570E-02    0.282E+00
RMM:   9    -0.635504422518E+03   -0.13964E-01   -0.27902E-03  4401   0.649E-02    0.214E+00
RMM:  10    -0.635520233081E+03   -0.15811E-01   -0.47739E-03  4399   0.126E-01    0.304E+00
RMM:  11    -0.635503476873E+03    0.16756E-01   -0.10136E-03  4154   0.554E-02    0.224E+00
RMM:  12    -0.635503510203E+03   -0.33329E-04   -0.16467E-04  3875   0.209E-02    0.112E+00
RMM:  13    -0.635510587796E+03   -0.70776E-02   -0.54319E-04  3910   0.380E-02    0.481E-01
RMM:  14    -0.635516923044E+03   -0.63352E-02   -0.10187E-03  3997   0.588E-02    0.696E-01
RMM:  15    -0.635516408777E+03    0.51427E-03   -0.27749E-04  3559   0.281E-02    0.307E-01
RMM:  16    -0.635516388602E+03    0.20175E-04   -0.60018E-05  2825   0.134E-02    0.115E-01
RMM:  17    -0.635516404439E+03   -0.15838E-04   -0.59228E-05  2780   0.132E-02    0.992E-02
RMM:  18    -0.635516446169E+03   -0.41730E-04   -0.80645E-06  2262   0.558E-03    0.120E-01
RMM:  19    -0.635516443083E+03    0.30855E-05   -0.11156E-06  1874   0.202E-03
  16 F= -.63551644E+03 E0= -.63546201E+03  d E =-.108868E+00
       N       E                     dE             d eps       ncg     rms          rms(c)
DAV:   1    -0.635514675243E+03    0.17709E-02   -0.37549E+00  4560   0.120E+00    0.269E-01
RMM:   2    -0.635518618061E+03   -0.39428E-02   -0.20502E-02  3699   0.897E-02    0.144E+00
RMM:   3    -0.635513808176E+03    0.48099E-02   -0.19994E-03  3901   0.546E-02    0.107E+00
RMM:   4    -0.635517810583E+03   -0.40024E-02   -0.16521E-03  4090   0.661E-02    0.792E-01
RMM:   5    -0.635516614759E+03    0.11958E-02   -0.81078E-04  4017   0.480E-02    0.209E-01
RMM:   6    -0.635516990553E+03   -0.37579E-03   -0.15052E-04  4082   0.211E-02    0.271E-01
RMM:   7    -0.635516630982E+03    0.35957E-03   -0.66186E-05  3691   0.134E-02    0.102E-01
RMM:   8    -0.635516525565E+03    0.10542E-03   -0.30933E-05  2751   0.114E-02    0.668E-02
RMM:   9    -0.635516520433E+03    0.51318E-05   -0.73144E-06  2269   0.563E-03
  17 F= -.63551652E+03 E0= -.63546206E+03  d E =-.108924E+00
       N       E                     dE             d eps       ncg     rms          rms(c)
DAV:   1    -0.635505089625E+03    0.11436E-01   -0.24386E+00  3520   0.120E+00    0.551E-01
RMM:   2    -0.635758751068E+03   -0.25366E+00   -0.50641E-02  3522   0.163E-01    0.775E+00
RMM:   3    -0.635454820041E+03    0.30393E+00   -0.21077E-02  3520   0.177E-01    0.113E+00
RMM:   4    -0.635507336685E+03   -0.52517E-01   -0.56076E-03  3520   0.141E-01    0.479E-01
RMM:   5    -0.635508157515E+03   -0.82083E-03   -0.74829E-04  3401   0.439E-02    0.538E-01
RMM:   6    -0.635507330542E+03    0.82697E-03   -0.22665E-04  3258   0.240E-02    0.313E-01
RMM:   7    -0.635507191551E+03    0.13899E-03   -0.75574E-05  2953   0.157E-02    0.182E-01
RMM:   8    -0.635507094257E+03    0.97294E-04   -0.83815E-05  2773   0.155E-02    0.189E-01
RMM:   9    -0.635506977076E+03    0.11718E-03   -0.16981E-04  2791   0.221E-02    0.235E-01
RMM:  10    -0.635506860671E+03    0.11641E-03   -0.36522E-05  2153   0.109E-02    0.171E-01
RMM:  11    -0.635506848120E+03    0.12552E-04   -0.54070E-06  1809   0.506E-03    0.890E-02
RMM:  12    -0.635506878911E+03   -0.30792E-04   -0.14346E-05  1756   0.620E-03    0.295E-02
RMM:  13    -0.635506895417E+03   -0.16506E-04   -0.27338E-05  1947   0.898E-03    0.151E-02
RMM:  14    -0.635506895566E+03   -0.14857E-06   -0.13776E-06  1478   0.257E-03
  18 F= -.63550690E+03 E0= -.63545240E+03  d E =-.109000E+00
       N       E                     dE             d eps       ncg     rms          rms(c)
DAV:   1    -0.635524546969E+03   -0.17652E-01   -0.49547E+00  3520   0.175E+00    0.107E+00
RMM:   2    -0.636078507627E+03   -0.55396E+00   -0.91526E-02  3523   0.242E-01    0.803E+00
RMM:   3    -0.635519949677E+03    0.55856E+00   -0.57789E-02  3520   0.236E-01    0.361E+00
RMM:   4    -0.635512973397E+03    0.69763E-02   -0.73940E-03  3520   0.153E-01    0.204E+00
RMM:   5    -0.635517438723E+03   -0.44653E-02   -0.24866E-03  3512   0.815E-02    0.532E-01
RMM:   6    -0.635526346584E+03   -0.89079E-02   -0.13821E-03  3435   0.663E-02    0.368E-01
RMM:   7    -0.635526877772E+03   -0.53119E-03   -0.89358E-04  3505   0.504E-02    0.452E-01
RMM:   8    -0.635526334310E+03    0.54346E-03   -0.27602E-04  3326   0.293E-02    0.159E-01
RMM:   9    -0.635526260192E+03    0.74118E-04   -0.11583E-04  3071   0.191E-02    0.149E-01
RMM:  10    -0.635526247326E+03    0.12866E-04   -0.85314E-05  2630   0.155E-02    0.225E-01
RMM:  11    -0.635526151176E+03    0.96150E-04   -0.58594E-05  2448   0.138E-02    0.171E-01
RMM:  12    -0.635526109493E+03    0.41683E-04   -0.82687E-06  1866   0.634E-03    0.104E-01
RMM:  13    -0.635526131841E+03   -0.22348E-04   -0.77766E-06  1696   0.488E-03    0.308E-02
RMM:  14    -0.635526157504E+03   -0.25662E-04   -0.15413E-05  1789   0.687E-03    0.152E-02
RMM:  15    -0.635526160994E+03   -0.34907E-05   -0.56329E-06  1581   0.453E-03
  19 F= -.63552616E+03 E0= -.63547175E+03  d E =-.108812E+00
       N       E                     dE             d eps       ncg     rms          rms(c)
DAV:   1    -0.635529905278E+03   -0.37478E-02   -0.25858E+00  3760   0.120E+00    0.373E+00
RMM:   2    -0.639064767959E+03   -0.35349E+01   -0.15837E+00  3531   0.754E-01    0.147E+01
RMM:   3    -0.637193754897E+03    0.18710E+01   -0.51881E-01  3527   0.775E-01    0.168E+01
RMM:   4    -0.635838256175E+03    0.13555E+01   -0.23089E-01  3531   0.661E-01    0.848E+00
RMM:   5    -0.635526753396E+03    0.31150E+00   -0.59429E-02  3545   0.354E-01    0.698E+00
RMM:   6    -0.635435352703E+03    0.91401E-01   -0.13086E-02  3571   0.156E-01    0.126E+00
RMM:   7    -0.635500052626E+03   -0.64700E-01   -0.61883E-03  3520   0.141E-01    0.802E-01
RMM:   8    -0.635510332401E+03   -0.10280E-01   -0.20105E-03  3520   0.733E-02    0.110E+00
RMM:   9    -0.635508654273E+03    0.16781E-02   -0.50615E-04  3541   0.334E-02    0.962E-01
RMM:  10    -0.635508822735E+03   -0.16846E-03   -0.24584E-04  3169   0.210E-02    0.411E-01
RMM:  11    -0.635511241473E+03   -0.24187E-02   -0.76367E-04  3131   0.486E-02    0.100E+00
RMM:  12    -0.635511290406E+03   -0.48933E-04   -0.55632E-04  3080   0.408E-02    0.127E+00
RMM:  13    -0.635508784056E+03    0.25064E-02   -0.91782E-05  2482   0.185E-02    0.781E-01
RMM:  14    -0.635510471969E+03   -0.16879E-02   -0.20791E-04  2908   0.212E-02    0.929E-01
RMM:  15    -0.635510527843E+03   -0.55874E-04   -0.12562E-03  3095   0.607E-02    0.775E-01
RMM:  16    -0.635509419867E+03    0.11080E-02   -0.45272E-05  2124   0.106E-02    0.674E-02
RMM:  17    -0.635510297358E+03   -0.87749E-03   -0.36618E-04  2814   0.327E-02    0.104E-01
RMM:  18    -0.635510209384E+03    0.87974E-04   -0.80105E-05  2218   0.154E-02    0.365E-02
RMM:  19    -0.635510217775E+03   -0.83910E-05   -0.17914E-06  1606   0.272E-03
  20 F= -.63551022E+03 E0= -.63545580E+03  d E =-.108833E+00
       N       E                     dE             d eps       ncg     rms          rms(c)
DAV:   1    -0.635574709780E+03   -0.64500E-01   -0.51402E+00  3680   0.158E+00    0.601E+00
RMM:   2    -0.642904154855E+03   -0.73294E+01   -0.25025E+00  3526   0.104E+00    0.208E+01
RMM:   3    -0.640977423919E+03    0.19267E+01   -0.87810E-01  3524   0.117E+00    0.286E+01
RMM:   4    -0.636497095810E+03    0.44803E+01   -0.54193E-01  3520   0.108E+00    0.103E+01
RMM:   5    -0.635898412195E+03    0.59868E+00   -0.18577E-01  3528   0.636E-01    0.823E+00
RMM:   6    -0.635595744968E+03    0.30267E+00   -0.97922E-02  3642   0.366E-01    0.643E+00
RMM:   7    -0.635505878251E+03    0.89867E-01   -0.20328E-02  3543   0.233E-01    0.495E+00
RMM:   8    -0.635501068580E+03    0.48097E-02   -0.42365E-03  3539   0.114E-01    0.473E+00
RMM:   9    -0.635494106220E+03    0.69624E-02   -0.11785E-03  3588   0.531E-02    0.426E+00
RMM:  10    -0.635482857333E+03    0.11249E-01   -0.37388E-03  3518   0.701E-02    0.157E+00
RMM:  11    -0.635587535397E+03   -0.10468E+00   -0.11948E-02  3520   0.155E-01    0.652E+00
RMM:  12    -0.635492976848E+03    0.94559E-01   -0.54064E-03  3517   0.139E-01    0.554E+00
RMM:  13    -0.635460293471E+03    0.32683E-01   -0.78016E-04  3246   0.308E-02    0.304E+00
RMM:  14    -0.635486598237E+03   -0.26305E-01   -0.17989E-03  3401   0.666E-02    0.129E+00
RMM:  15    -0.635514051401E+03   -0.27453E-01   -0.35307E-03  3498   0.113E-01    0.178E+00
RMM:  16    -0.635506823921E+03    0.72275E-02   -0.75257E-04  3250   0.525E-02    0.597E-01
RMM:  17    -0.635510335164E+03   -0.35112E-02   -0.35602E-04  2938   0.331E-02    0.117E-01
RMM:  18    -0.635510886920E+03   -0.55176E-03   -0.42154E-04  2847   0.362E-02    0.233E-01
RMM:  19    -0.635510847801E+03    0.39119E-04   -0.34059E-05  2104   0.998E-03    0.283E-01
RMM:  20    -0.635510806723E+03    0.41079E-04   -0.10152E-05  1900   0.535E-03    0.919E-02
RMM:  21    -0.635510902787E+03   -0.96064E-04   -0.41301E-05  2134   0.105E-02    0.160E-02
RMM:  22    -0.635510968708E+03   -0.65922E-04   -0.31792E-05  2029   0.975E-03    0.185E-02
RMM:  23    -0.635510992706E+03   -0.23998E-04   -0.52363E-06  1642   0.412E-03    0.273E-02
RMM:  24    -0.635511012845E+03   -0.20139E-04   -0.19261E-06  1468   0.232E-03    0.616E-02
RMM:  25    -0.635511037770E+03   -0.24925E-04   -0.30719E-06  1565   0.294E-03    0.642E-02
RMM:  26    -0.635511050884E+03   -0.13114E-04   -0.13346E-06   989   0.139E-03    0.859E-03
RMM:  27    -0.635511052560E+03   -0.16758E-05   -0.50929E-06  1369   0.358E-03
  21 F= -.63551105E+03 E0= -.63545656E+03  d E =-.108978E+00
       N       E                     dE             d eps       ncg     rms          rms(c)
DAV:   1    -0.635531539516E+03   -0.20489E-01   -0.24861E+00  4600   0.118E+00    0.336E+00
RMM:   2    -0.638604956797E+03   -0.30734E+01   -0.12745E+00  4411   0.724E-01    0.139E+01
RMM:   3    -0.636839598139E+03    0.17654E+01   -0.43909E-01  4407   0.701E-01    0.154E+01
RMM:   4    -0.635756458692E+03    0.10831E+01   -0.18579E-01  4417   0.598E-01    0.811E+00
RMM:   5    -0.635498088701E+03    0.25837E+00   -0.44977E-02  4424   0.308E-01    0.615E+00
RMM:   6    -0.635451506693E+03    0.46582E-01   -0.84183E-03  4474   0.127E-01    0.139E+00
RMM:   7    -0.635506024031E+03   -0.54517E-01   -0.48166E-03  4402   0.122E-01    0.960E-01
RMM:   8    -0.635514716688E+03   -0.86927E-02   -0.17114E-03  4397   0.663E-02    0.713E-01
RMM:   9    -0.635516284932E+03   -0.15682E-02   -0.53375E-04  4354   0.370E-02    0.286E-01
RMM:  10    -0.635517275124E+03   -0.99019E-03   -0.45168E-04  4007   0.337E-02    0.664E-01
RMM:  11    -0.635517397111E+03   -0.12199E-03   -0.69872E-04  3878   0.431E-02    0.951E-01
RMM:  12    -0.635516559216E+03    0.83789E-03   -0.19719E-04  3674   0.249E-02    0.845E-01
RMM:  13    -0.635515924058E+03    0.63516E-03   -0.32165E-05  2736   0.929E-03    0.141E-01
RMM:  14    -0.635517010985E+03   -0.10869E-02   -0.37347E-04  3670   0.325E-02    0.798E-01
RMM:  15    -0.635516622757E+03    0.38823E-03   -0.58473E-04  3647   0.399E-02    0.660E-01
RMM:  16    -0.635516089419E+03    0.53334E-03   -0.19067E-05  2400   0.598E-03    0.112E-01
RMM:  17    -0.635516665708E+03   -0.57629E-03   -0.25518E-04  3397   0.260E-02    0.200E-01
RMM:  18    -0.635516467484E+03    0.19822E-03   -0.17760E-04  3105   0.220E-02    0.839E-02
RMM:  19    -0.635516479483E+03   -0.11999E-04   -0.32300E-06  2028   0.334E-03    0.963E-03
RMM:  20    -0.635516495051E+03   -0.15568E-04   -0.14351E-05  2006   0.626E-03    0.934E-03
RMM:  21    -0.635516501581E+03   -0.65303E-05   -0.67086E-07  1340   0.162E-03
  22 F= -.63551650E+03 E0= -.63546205E+03  d E =-.108898E+00
       N       E                     dE             d eps       ncg     rms          rms(c)
DAV:   1    -0.635514901904E+03    0.15931E-02   -0.37643E+00  4480   0.121E+00    0.261E-01
RMM:   2    -0.635516494149E+03   -0.15922E-02   -0.17818E-02  3563   0.848E-02    0.202E-01
RMM:   3    -0.635536679616E+03   -0.20185E-01   -0.25840E-03  4153   0.339E-02    0.406E+00
RMM:   4    -0.635495683153E+03    0.40996E-01   -0.38228E-03  4261   0.101E-01    0.732E-01
RMM:   5    -0.635516585014E+03   -0.20902E-01   -0.19516E-03  4177   0.814E-02    0.251E-01
RMM:   6    -0.635516858101E+03   -0.27309E-03   -0.24855E-04  4008   0.299E-02    0.153E-01
RMM:   7    -0.635516550833E+03    0.30727E-03   -0.90320E-05  3408   0.177E-02    0.709E-02
RMM:   8    -0.635516538450E+03    0.12382E-04   -0.10292E-05  2326   0.664E-03    0.788E-02
RMM:   9    -0.635516539240E+03   -0.78924E-06   -0.41247E-06  2230   0.416E-03
  23 F= -.63551654E+03 E0= -.63546206E+03  d E =-.108950E+00
       N       E                     dE             d eps       ncg     rms          rms(c)
DAV:   1    -0.635505262033E+03    0.11276E-01   -0.24437E+00  3520   0.121E+00    0.383E-01
RMM:   2    -0.635633298010E+03   -0.12804E+00   -0.33600E-02  3392   0.133E-01    0.713E+00
RMM:   3    -0.635455140494E+03    0.17816E+00   -0.11625E-02  3520   0.155E-01    0.123E+00
RMM:   4    -0.635508642523E+03   -0.53502E-01   -0.54558E-03  3518   0.139E-01    0.665E-01
RMM:   5    -0.635507756408E+03    0.88612E-03   -0.45448E-04  3278   0.369E-02    0.442E-01
RMM:   6    -0.635507714059E+03    0.42348E-04   -0.28478E-04  3245   0.296E-02    0.422E-01
RMM:   7    -0.635507627967E+03    0.86092E-04   -0.87868E-05  2956   0.169E-02    0.379E-01
RMM:   8    -0.635507558832E+03    0.69135E-04   -0.21628E-05  2022   0.871E-03    0.288E-01
RMM:   9    -0.635507550297E+03    0.85351E-05   -0.43044E-05  2410   0.117E-02
  24 F= -.63550755E+03 E0= -.63545300E+03  d E =-.109110E+00
       N       E                     dE             d eps       ncg     rms          rms(c)
DAV:   1    -0.635520272270E+03   -0.12713E-01   -0.49318E+00  3520   0.177E+00    0.665E-01
RMM:   2    -0.635774723937E+03   -0.25445E+00   -0.70651E-02  3522   0.208E-01    0.656E+00
RMM:   3    -0.635497654137E+03    0.27707E+00   -0.23104E-02  3520   0.169E-01    0.129E+00
RMM:   4    -0.635525425436E+03   -0.27771E-01   -0.48331E-03  3520   0.119E-01    0.682E-01
RMM:   5    -0.635526115897E+03   -0.69046E-03   -0.14539E-03  3499   0.637E-02    0.609E-01
RMM:   6    -0.635525222218E+03    0.89368E-03   -0.34753E-04  3254   0.277E-02    0.289E-01
RMM:   7    -0.635525364321E+03   -0.14210E-03   -0.34607E-04  3286   0.309E-02    0.233E-01
RMM:   8    -0.635525573928E+03   -0.20961E-03   -0.17276E-04  3171   0.207E-02    0.338E-01
RMM:   9    -0.635525606754E+03   -0.32826E-04   -0.15959E-04  3050   0.215E-02    0.196E-01
RMM:  10    -0.635525445261E+03    0.16149E-03   -0.39340E-05  2568   0.116E-02    0.133E-01
RMM:  11    -0.635525417811E+03    0.27450E-04   -0.22737E-05  1936   0.877E-03    0.154E-01
RMM:  12    -0.635525322261E+03    0.95550E-04   -0.97672E-05  2341   0.173E-02    0.748E-02
RMM:  13    -0.635525324157E+03   -0.18960E-05   -0.27196E-06  1686   0.373E-03
  25 F= -.63552532E+03 E0= -.63547092E+03  d E =-.108811E+00
