<?xml version="1.0" encoding="ISO-8859-1"?>
<modeling>
 <generator>
  <i name="program" type="string">vasp </i>
  <i name="version" type="string">5.4.4.18Apr17-6-g9f103f2a35  </i>
  <i name="subversion" type="string">(build Feb 25 2019 10:51:38) complex            parallel </i>
  <i name="platform" type="string">LinuxIFC </i>
  <i name="date" type="string">2023 09 06 </i>
  <i name="time" type="string">09:15:14 </i>
 </generator>
 <incar>
  <i type="string" name="PREC">normal</i>
  <i type="string" name="ALGO"> Fast</i>
  <i type="int" name="ISPIN">     1</i>
  <i type="int" name="ICHARG">     2</i>
  <i type="int" name="NELM">   260</i>
  <i type="int" name="NELMIN">     4</i>
  <i type="int" name="IBRION">     5</i>
  <i name="EDIFF">      0.00001000</i>
  <i name="EDIFFG">     -0.05000000</i>
  <i type="int" name="NSW">   500</i>
  <i type="int" name="ISIF">     2</i>
  <i name="ENCUT">    500.00000000</i>
  <i type="string" name="LREAL"> Auto</i>
  <i type="int" name="ISMEAR">     0</i>
  <i name="SIGMA">      0.05000000</i>
  <i type="logical" name="LWAVE"> F  </i>
  <i type="logical" name="LCHARG"> F  </i>
  <v type="int" name="KPOINT_BSE">    -1     0     0     0</v>
  <i type="int" name="NELM">   260</i>
  <i type="string" name="GGA"> Rp</i>
 </incar>
 <structure name="primitive_cell" >
  <crystal>
   <varray name="basis" >
    <v>      12.80853200       0.00000000       0.00000000 </v>
    <v>       0.00000000       6.47024300       0.00000000 </v>
    <v>       0.00000000       0.00000000      25.88097200 </v>
   </varray>
   <i name="volume">   2144.86781344 </i>
   <varray name="rec_basis" >
    <v>       0.07807296       0.00000000       0.00000000 </v>
    <v>       0.00000000       0.15455370       0.00000000 </v>
    <v>       0.00000000       0.00000000       0.03863843 </v>
   </varray>
  </crystal>
  <varray name="positions" >
   <v>       0.12500000      -0.50000000       0.18750000 </v>
   <v>       0.12500000      -0.19156000       0.18750000 </v>
   <v>       0.12500000       0.19156000       0.18750000 </v>
   <v>       0.00000000      -0.50000000       0.13961000 </v>
   <v>       0.25000000      -0.50000000       0.13961000 </v>
   <v>       0.00000000      -0.50000000       0.23539000 </v>
   <v>       0.25000000      -0.50000000       0.23539000 </v>
   <v>       0.37500000      -0.50000000       0.18750000 </v>
   <v>      -0.12500000      -0.50000000       0.18750000 </v>
   <v>       0.12500000       0.30844000       0.06250000 </v>
   <v>       0.12500000      -0.30844000       0.06250000 </v>
   <v>       0.12466626       0.30822676       0.31283733 </v>
   <v>       0.12466626      -0.30822676       0.31283733 </v>
   <v>       0.00000000      -0.50000000       0.06250000 </v>
   <v>       0.25000000      -0.50000000       0.06250000 </v>
   <v>       0.00000000       0.00000000       0.18750000 </v>
   <v>       0.25000000       0.00000000       0.18750000 </v>
   <v>       0.24981469      -0.50000000       0.31298880 </v>
   <v>      -0.00006118      -0.50000000       0.31303677 </v>
   <v>       0.37500000      -0.19156000       0.18750000 </v>
   <v>       0.37500000       0.19156000       0.18750000 </v>
   <v>      -0.12500000      -0.19156000       0.18750000 </v>
   <v>      -0.12500000       0.19156000       0.18750000 </v>
   <v>       0.00000000       0.00000000       0.11039000 </v>
   <v>       0.25000000       0.00000000       0.11039000 </v>
   <v>       0.24929351       0.00000000       0.26497213 </v>
   <v>       0.00023579       0.00000000       0.26504881 </v>
   <v>       0.12500000       0.00000000       0.06250000 </v>
   <v>       0.12475721       0.00000000       0.31358560 </v>
   <v>       0.37500000       0.30844000       0.06250000 </v>
   <v>       0.37500000      -0.30844000       0.06250000 </v>
   <v>      -0.12500000       0.30844000       0.06250000 </v>
   <v>      -0.12500000      -0.30844000       0.06250000 </v>
   <v>       0.37476549      -0.30820207       0.31297128 </v>
   <v>       0.37476549       0.30820207       0.31297128 </v>
   <v>      -0.12468719       0.30809786       0.31308993 </v>
   <v>      -0.12468719      -0.30809786       0.31308993 </v>
   <v>      -0.50000000      -0.50000000       0.13961000 </v>
   <v>      -0.25000000      -0.50000000       0.13961000 </v>
   <v>      -0.50000000      -0.50000000       0.23539000 </v>
   <v>      -0.25000000      -0.50000000       0.23539000 </v>
   <v>       0.24981054      -0.50000000       0.38961764 </v>
   <v>      -0.00013109      -0.50000000       0.38974426 </v>
   <v>       0.37500000       0.00000000       0.06250000 </v>
   <v>      -0.12500000       0.00000000       0.06250000 </v>
   <v>       0.37369576       0.00000000       0.31313609 </v>
   <v>      -0.12384222       0.00000000       0.31327275 </v>
   <v>       0.00000000       0.00000000       0.01461000 </v>
   <v>       0.25000000       0.00000000       0.01461000 </v>
   <v>       0.24971845       0.00000000       0.36199288 </v>
   <v>      -0.00000566       0.00000000       0.36220260 </v>
   <v>      -0.50000000      -0.50000000       0.06250000 </v>
   <v>      -0.25000000      -0.50000000       0.06250000 </v>
   <v>      -0.50000000       0.00000000       0.18750000 </v>
   <v>      -0.25000000       0.00000000       0.18750000 </v>
   <v>       0.49988084      -0.50000000       0.31330363 </v>
   <v>      -0.24997445      -0.50000000       0.31332693 </v>
   <v>      -0.50000000       0.00000000       0.11039000 </v>
   <v>      -0.25000000       0.00000000       0.11039000 </v>
   <v>      -0.24983434       0.00000000       0.26499705 </v>
   <v>       0.49995366       0.00000000       0.26499837 </v>
   <v>      -0.37500000      -0.50000000       0.18750000 </v>
   <v>       0.12485379      -0.50000000       0.43800764 </v>
   <v>      -0.37500000      -0.19156000       0.18750000 </v>
   <v>      -0.37500000       0.19156000       0.18750000 </v>
   <v>       0.12472399      -0.19072980       0.43568366 </v>
   <v>       0.12472399       0.19072980       0.43568366 </v>
   <v>       0.49992674      -0.50000000       0.39036267 </v>
   <v>      -0.24998376      -0.50000000       0.39038988 </v>
   <v>       0.37452250      -0.50000000       0.43867343 </v>
   <v>      -0.12470837      -0.50000000       0.43880979 </v>
   <v>      -0.37500000       0.30844000       0.06250000 </v>
   <v>      -0.37500000      -0.30844000       0.06250000 </v>
   <v>      -0.37513196      -0.30821655       0.31330254 </v>
   <v>      -0.37513196       0.30821655       0.31330254 </v>
   <v>      -0.50000000       0.00000000       0.01461000 </v>
   <v>      -0.25000000       0.00000000       0.01461000 </v>
   <v>       0.49958760       0.00000000       0.36089798 </v>
   <v>      -0.24957260       0.00000000       0.36109984 </v>
   <v>       0.25097341       0.00000000       0.44206357 </v>
   <v>      -0.00122700       0.00000000       0.44231523 </v>
   <v>       0.37554535      -0.18955252       0.43922492 </v>
   <v>       0.37554535       0.18955252       0.43922492 </v>
   <v>      -0.12566945      -0.18966927       0.43967270 </v>
   <v>      -0.12566945       0.18966927       0.43967270 </v>
   <v>       0.24887661      -0.50000000       0.48380354 </v>
   <v>       0.00089925      -0.50000000       0.48383167 </v>
   <v>      -0.37500000       0.00000000       0.06250000 </v>
   <v>      -0.37495949       0.00000000       0.31318663 </v>
   <v>      -0.49848912       0.00000000       0.43831374 </v>
   <v>      -0.25157102       0.00000000       0.43875871 </v>
   <v>       0.49951346      -0.50000000       0.48487600 </v>
   <v>      -0.24959557      -0.50000000       0.48499898 </v>
   <v>       0.24500098       0.00000000      -0.48910001 </v>
   <v>       0.00444294       0.00000000      -0.48883044 </v>
   <v>      -0.37505764      -0.50000000       0.43949639 </v>
   <v>      -0.37502384      -0.19127218       0.44125040 </v>
   <v>      -0.37502384       0.19127218       0.44125040 </v>
   <v>      -0.32424018       0.00000000      -0.45351747 </v>
   <v>      -0.42243549       0.00000000      -0.45275344 </v>
  </varray>
 </structure>
 <varray name="primitive_index" >
  <v type="int" >        1 </v>
  <v type="int" >       21 </v>
  <v type="int" >       29 </v>
  <v type="int" >       17 </v>
  <v type="int" >       18 </v>
  <v type="int" >       25 </v>
  <v type="int" >       26 </v>
  <v type="int" >        2 </v>
  <v type="int" >       52 </v>
  <v type="int" >       23 </v>
  <v type="int" >       31 </v>
  <v type="int" >       39 </v>
  <v type="int" >       47 </v>
  <v type="int" >        5 </v>
  <v type="int" >        6 </v>
  <v type="int" >        7 </v>
  <v type="int" >        8 </v>
  <v type="int" >       14 </v>
  <v type="int" >       13 </v>
  <v type="int" >       22 </v>
  <v type="int" >       30 </v>
  <v type="int" >       72 </v>
  <v type="int" >       80 </v>
  <v type="int" >       27 </v>
  <v type="int" >       28 </v>
  <v type="int" >       36 </v>
  <v type="int" >       35 </v>
  <v type="int" >        3 </v>
  <v type="int" >       11 </v>
  <v type="int" >       24 </v>
  <v type="int" >       32 </v>
  <v type="int" >       74 </v>
  <v type="int" >       82 </v>
  <v type="int" >       48 </v>
  <v type="int" >       40 </v>
  <v type="int" >       90 </v>
  <v type="int" >       98 </v>
  <v type="int" >       67 </v>
  <v type="int" >       68 </v>
  <v type="int" >       75 </v>
  <v type="int" >       76 </v>
  <v type="int" >       34 </v>
  <v type="int" >       33 </v>
  <v type="int" >        4 </v>
  <v type="int" >       54 </v>
  <v type="int" >       12 </v>
  <v type="int" >       62 </v>
  <v type="int" >       19 </v>
  <v type="int" >       20 </v>
  <v type="int" >       44 </v>
  <v type="int" >       43 </v>
  <v type="int" >       55 </v>
  <v type="int" >       56 </v>
  <v type="int" >       57 </v>
  <v type="int" >       58 </v>
  <v type="int" >       63 </v>
  <v type="int" >       64 </v>
  <v type="int" >       77 </v>
  <v type="int" >       78 </v>
  <v type="int" >       86 </v>
  <v type="int" >       85 </v>
  <v type="int" >       51 </v>
  <v type="int" >        9 </v>
  <v type="int" >       71 </v>
  <v type="int" >       79 </v>
  <v type="int" >       37 </v>
  <v type="int" >       45 </v>
  <v type="int" >       83 </v>
  <v type="int" >       84 </v>
  <v type="int" >       10 </v>
  <v type="int" >       60 </v>
  <v type="int" >       73 </v>
  <v type="int" >       81 </v>
  <v type="int" >       97 </v>
  <v type="int" >       89 </v>
  <v type="int" >       69 </v>
  <v type="int" >       70 </v>
  <v type="int" >       93 </v>
  <v type="int" >       94 </v>
  <v type="int" >       16 </v>
  <v type="int" >       15 </v>
  <v type="int" >       38 </v>
  <v type="int" >       46 </v>
  <v type="int" >       88 </v>
  <v type="int" >       96 </v>
  <v type="int" >       42 </v>
  <v type="int" >       41 </v>
  <v type="int" >       53 </v>
  <v type="int" >       61 </v>
  <v type="int" >       65 </v>
  <v type="int" >       66 </v>
  <v type="int" >       91 </v>
  <v type="int" >       92 </v>
  <v type="int" >       49 </v>
  <v type="int" >       50 </v>
  <v type="int" >       59 </v>
  <v type="int" >       87 </v>
  <v type="int" >       95 </v>
  <v type="int" >       99 </v>
  <v type="int" >      100 </v>
 </varray>
 <kpoints>
  <generation param="Gamma">
   <v type="int" name="divisions">       3        3        1 </v>
   <v name="usershift">      0.00000000       0.00000000       0.00000000 </v>
   <v name="genvec1">      0.33333333       0.00000000       0.00000000 </v>
   <v name="genvec2">      0.00000000       0.33333333       0.00000000 </v>
   <v name="genvec3">      0.00000000       0.00000000       1.00000000 </v>
   <v name="shift">      0.00000000       0.00000000       0.00000000 </v>
  </generation>
  <varray name="kpointlist" >
   <v>       0.00000000       0.00000000       0.00000000 </v>
   <v>       0.33333333       0.00000000       0.00000000 </v>
   <v>       0.00000000       0.33333333       0.00000000 </v>
   <v>       0.33333333       0.33333333       0.00000000 </v>
  </varray>
  <varray name="weights" >
   <v>       0.11111111 </v>
   <v>       0.22222222 </v>
   <v>       0.22222222 </v>
   <v>       0.44444444 </v>
  </varray>
 </kpoints>
 <parameters>
  <separator name="general" >
   <i type="string" name="SYSTEM">unknown system</i>
   <i type="logical" name="LCOMPAT"> F  </i>
  </separator>
  <separator name="electronic" >
   <i type="string" name="PREC">normal</i>
   <i name="ENMAX">    500.00000000</i>
   <i name="ENAUG">    605.39200000</i>
   <i name="EDIFF">      0.00001000</i>
   <i type="int" name="IALGO">    68</i>
   <i type="int" name="IWAVPR">    11</i>
   <i type="int" name="NBANDS">   440</i>
   <i name="NELECT">    696.00000000</i>
   <i type="int" name="TURBO">     0</i>
   <i type="int" name="IRESTART">     0</i>
   <i type="int" name="NREBOOT">     0</i>
   <i type="int" name="NMIN">     0</i>
   <i name="EREF">      0.00000000</i>
   <separator name="electronic smearing" >
    <i type="int" name="ISMEAR">     0</i>
    <i name="SIGMA">      0.05000000</i>
    <i name="KSPACING">      0.50000000</i>
    <i type="logical" name="KGAMMA"> T  </i>
   </separator>
   <separator name="electronic projectors" >
    <i type="logical" name="LREAL"> T  </i>
    <v name="ROPT">     -0.00050000     -0.00050000     -0.00050000     -0.00050000</v>
    <i type="int" name="LMAXPAW">  -100</i>
    <i type="int" name="LMAXMIX">     2</i>
    <i type="logical" name="NLSPLINE"> F  </i>
   </separator>
   <separator name="electronic startup" >
    <i type="int" name="ISTART">     0</i>
    <i type="int" name="ICHARG">     2</i>
    <i type="int" name="INIWAV">     1</i>
   </separator>
   <separator name="electronic spin" >
    <i type="int" name="ISPIN">     1</i>
    <i type="logical" name="LNONCOLLINEAR"> F  </i>
    <v name="MAGMOM">      1.00000000      1.00000000      1.00000000      1.00000000      1.00000000      1.00000000      1.00000000      1.00000000      1.00000000      1.00000000      1.00000000      1.00000000      1.00000000      1.00000000      1.00000000      1.00000000      1.00000000      1.00000000      1.00000000      1.00000000
      1.00000000      1.00000000      1.00000000      1.00000000      1.00000000      1.00000000      1.00000000      1.00000000      1.00000000      1.00000000      1.00000000      1.00000000      1.00000000      1.00000000      1.00000000      1.00000000      1.00000000      1.00000000      1.00000000      1.00000000
      1.00000000      1.00000000      1.00000000      1.00000000      1.00000000      1.00000000      1.00000000      1.00000000      1.00000000      1.00000000      1.00000000      1.00000000      1.00000000      1.00000000      1.00000000      1.00000000      1.00000000      1.00000000      1.00000000      1.00000000
      1.00000000      1.00000000      1.00000000      1.00000000      1.00000000      1.00000000      1.00000000      1.00000000      1.00000000      1.00000000      1.00000000      1.00000000      1.00000000      1.00000000      1.00000000      1.00000000      1.00000000      1.00000000      1.00000000      1.00000000
      1.00000000      1.00000000      1.00000000      1.00000000      1.00000000      1.00000000      1.00000000      1.00000000      1.00000000      1.00000000      1.00000000      1.00000000      1.00000000      1.00000000      1.00000000      1.00000000      1.00000000      1.00000000      1.00000000      1.00000000
</v>
    <i name="NUPDOWN">     -1.00000000</i>
    <i type="logical" name="LSORBIT"> F  </i>
    <v name="SAXIS">      0.00000000      0.00000000      1.00000000</v>
    <i type="logical" name="LSPIRAL"> F  </i>
    <v name="QSPIRAL">      0.00000000      0.00000000      0.00000000</v>
    <i type="logical" name="LZEROZ"> F  </i>
   </separator>
   <separator name="electronic exchange-correlation" >
    <i type="logical" name="LASPH"> F  </i>
    <i type="logical" name="LMETAGGA"> F  </i>
   </separator>
   <separator name="electronic convergence" >
    <i type="int" name="NELM">   260</i>
    <i type="int" name="NELMDL">    -5</i>
    <i type="int" name="NELMIN">     4</i>
    <i name="ENINI">    500.00000000</i>
    <separator name="electronic convergence detail" >
     <i type="logical" name="LDIAG"> T  </i>
     <i type="logical" name="LSUBROT"> F  </i>
     <i name="WEIMIN">      0.00100000</i>
     <i name="EBREAK">      0.00000001</i>
     <i name="DEPER">      0.30000000</i>
     <i type="int" name="NRMM">     4</i>
     <i name="TIME">      0.40000000</i>
    </separator>
   </separator>
   <separator name="electronic mixer" >
    <i name="AMIX">      0.40000000</i>
    <i name="BMIX">      1.00000000</i>
    <i name="AMIN">      0.10000000</i>
    <i name="AMIX_MAG">      1.60000000</i>
    <i name="BMIX_MAG">      1.00000000</i>
    <separator name="electronic mixer details" >
     <i type="int" name="IMIX">     4</i>
     <i type="logical" name="MIXFIRST"> F  </i>
     <i type="int" name="MAXMIX">   -45</i>
     <i name="WC">    100.00000000</i>
     <i type="int" name="INIMIX">     1</i>
     <i type="int" name="MIXPRE">     1</i>
     <i type="int" name="MREMOVE">     5</i>
    </separator>
   </separator>
   <separator name="electronic dipolcorrection" >
    <i type="logical" name="LDIPOL"> F  </i>
    <i type="logical" name="LMONO"> F  </i>
    <i type="int" name="IDIPOL">     0</i>
    <i name="EPSILON">      1.00000000</i>
    <v name="DIPOL">   -100.00000000   -100.00000000   -100.00000000</v>
    <i name="EFIELD">      0.00000000</i>
   </separator>
  </separator>
  <separator name="grids" >
   <i type="int" name="NGX">    70</i>
   <i type="int" name="NGY">    36</i>
   <i type="int" name="NGZ">   144</i>
   <i type="int" name="NGXF">   140</i>
   <i type="int" name="NGYF">    72</i>
   <i type="int" name="NGZF">   288</i>
   <i type="logical" name="ADDGRID"> F  </i>
  </separator>
  <separator name="ionic" >
   <i type="int" name="NSW">  1237</i>
   <i type="int" name="IBRION">     5</i>
   <i type="int" name="MDALGO">     0</i>
   <i type="int" name="ISIF">     2</i>
   <i name="PSTRESS">      0.00000000</i>
   <i name="EDIFFG">     -0.05000000</i>
   <i type="int" name="NFREE">     2</i>
   <i name="POTIM">      0.50000000</i>
   <i name="SMASS">     -3.00000000</i>
   <i name="SCALEE">      1.00000000</i>
  </separator>
  <separator name="ionic md" >
   <i name="TEBEG">      0.00010000</i>
   <i name="TEEND">      0.00010000</i>
   <i type="int" name="NBLOCK">     1</i>
   <i type="int" name="KBLOCK">  1237</i>
   <i type="int" name="NPACO">   256</i>
   <i name="APACO">     16.00000000</i>
  </separator>
  <separator name="symmetry" >
   <i type="int" name="ISYM">     2</i>
   <i name="SYMPREC">      0.00001000</i>
  </separator>
  <separator name="dos" >
   <i type="int" name="LORBIT">     0</i>
   <v name="RWIGS">     -1.00000000     -1.00000000     -1.00000000     -1.00000000</v>
   <i type="int" name="NEDOS">   301</i>
   <i name="EMIN">     10.00000000</i>
   <i name="EMAX">    -10.00000000</i>
   <i name="EFERMI">      0.00000000</i>
  </separator>
  <separator name="writing" >
   <i type="int" name="NWRITE">     2</i>
   <i type="logical" name="LWAVE"> F  </i>
   <i type="logical" name="LDOWNSAMPLE"> F  </i>
   <i type="logical" name="LCHARG"> F  </i>
   <i type="logical" name="LPARD"> F  </i>
   <i type="logical" name="LVTOT"> F  </i>
   <i type="logical" name="LVHAR"> F  </i>
   <i type="logical" name="LELF"> F  </i>
   <i type="logical" name="LOPTICS"> F  </i>
   <v name="STM">      0.00000000      0.00000000      0.00000000      0.00000000      0.00000000      0.00000000      0.00000000</v>
  </separator>
  <separator name="performance" >
   <i type="int" name="NPAR">    40</i>
   <i type="int" name="NSIM">     4</i>
   <i type="int" name="NBLK">    -1</i>
   <i type="logical" name="LPLANE"> T  </i>
   <i type="logical" name="LSCALAPACK"> T  </i>
   <i type="logical" name="LSCAAWARE"> F  </i>
   <i type="logical" name="LSCALU"> F  </i>
   <i type="logical" name="LASYNC"> F  </i>
   <i type="logical" name="LORBITALREAL"> F  </i>
  </separator>
  <separator name="miscellaneous" >
   <i type="int" name="IDIOT">     3</i>
   <i type="int" name="ISPECIAL">     0</i>
   <i type="logical" name="LMUSIC"> F  </i>
   <v name="POMASS">    192.22000000     16.00000000    192.22000000     16.00000000</v>
   <v name="DARWINR">      0.00000000      0.00000000      0.00000000      0.00000000</v>
   <v name="DARWINV">      1.00000000      1.00000000      1.00000000      1.00000000</v>
   <i type="logical" name="LCORR"> T  </i>
  </separator>
  <i type="logical" name="GGA_COMPAT"> T  </i>
  <i type="logical" name="LBERRY"> F  </i>
  <i type="int" name="ICORELEVEL">     0</i>
  <i type="logical" name="LDAU"> F  </i>
  <i type="int" name="I_CONSTRAINED_M">     0</i>
  <separator name="electronic exchange-correlation" >
   <i type="string" name="GGA">RP</i>
   <i type="int" name="VOSKOWN">     0</i>
   <i type="logical" name="LHFCALC"> F  </i>
   <i type="string" name="PRECFOCK"></i>
   <i type="logical" name="LSYMGRAD"> F  </i>
   <i type="logical" name="LHFONE"> F  </i>
   <i type="logical" name="LRHFCALC"> F  </i>
   <i type="logical" name="LTHOMAS"> F  </i>
   <i type="logical" name="LMODELHF"> F  </i>
   <i name="ENCUT4O">     -1.00000000</i>
   <i type="int" name="EXXOEP">     0</i>
   <i type="int" name="FOURORBIT">     0</i>
   <i name="AEXX">      0.00000000</i>
   <i name="HFALPHA">      0.00000000</i>
   <i name="MCALPHA">      0.00000000</i>
   <i name="ALDAX">      1.00000000</i>
   <i name="AGGAX">      1.00000000</i>
   <i name="ALDAC">      1.00000000</i>
   <i name="AGGAC">      1.00000000</i>
   <i type="int" name="NKREDX">     1</i>
   <i type="int" name="NKREDY">     1</i>
   <i type="int" name="NKREDZ">     1</i>
   <i type="logical" name="SHIFTRED"> F  </i>
   <i type="logical" name="ODDONLY"> F  </i>
   <i type="logical" name="EVENONLY"> F  </i>
   <i type="int" name="LMAXFOCK">     0</i>
   <i type="int" name="NMAXFOCKAE">     0</i>
   <i type="logical" name="LFOCKAEDFT"> F  </i>
   <i name="HFSCREEN">      0.00000000</i>
   <i name="HFSCREENC">      0.00000000</i>
   <i type="int" name="NBANDSGWLOW">     0</i>
  </separator>
  <separator name="vdW DFT" >
   <i type="logical" name="LUSE_VDW"> F  </i>
   <i name="Zab_VDW">     -0.84910000</i>
   <i name="PARAM1">      0.12340000</i>
   <i name="PARAM2">      1.00000000</i>
   <i name="PARAM3">      0.00000000</i>
  </separator>
  <separator name="model GW" >
   <i type="int" name="MODEL_GW">     0</i>
   <i name="MODEL_EPS0">     12.86920688</i>
   <i name="MODEL_ALPHA">      1.00000000</i>
  </separator>
  <separator name="linear response parameters" >
   <i type="logical" name="LEPSILON"> F  </i>
   <i type="logical" name="LRPA"> F  </i>
   <i type="logical" name="LNABLA"> F  </i>
   <i type="logical" name="LVEL"> F  </i>
   <i type="int" name="KINTER">     0</i>
   <i name="CSHIFT">      0.10000000</i>
   <i name="OMEGAMAX">     -1.00000000</i>
   <i name="DEG_THRESHOLD">      0.00200000</i>
   <i name="RTIME">     -0.10000000</i>
   <i name="WPLASMAI">      0.00000000</i>
   <v name="DFIELD">      0.00000000      0.00000000      0.00000000</v>
   <v name="WPLASMA">      0.00000000      0.00000000      0.00000000      0.00000000      0.00000000      0.00000000      0.00000000      0.00000000      0.00000000</v>
  </separator>
  <separator name="orbital magnetization" >
   <i type="logical" name="NUCIND"> F  </i>
   <v name="MAGPOS">      0.00000000      0.00000000      0.00000000</v>
   <i type="logical" name="LNICSALL"> T  </i>
   <i type="logical" name="ORBITALMAG"> F  </i>
   <i type="logical" name="LMAGBLOCH"> F  </i>
   <i type="logical" name="LCHIMAG"> F  </i>
   <i type="logical" name="LGAUGE"> T  </i>
   <i type="int" name="MAGATOM">     0</i>
   <v name="MAGDIPOL">      0.00000000      0.00000000      0.00000000</v>
   <v name="AVECCONST">      0.00000000      0.00000000      0.00000000</v>
  </separator>
  <separator name="response functions" >
   <i type="logical" name="LADDER"> F  </i>
   <i type="logical" name="LRPAFORCE"> F  </i>
   <i type="logical" name="LFXC"> F  </i>
   <i type="logical" name="LHARTREE"> T  </i>
   <i type="int" name="IBSE">     0</i>
   <v type="int" name="KPOINT">    -1     0     0     0</v>
   <i type="logical" name="LTCTE"> F  </i>
   <i type="logical" name="LTETE"> F  </i>
   <i type="logical" name="LTRIPLET"> F  </i>
   <i type="logical" name="LFXCEPS"> F  </i>
   <i type="logical" name="LFXHEG"> F  </i>
   <i type="int" name="NATURALO">     2</i>
   <i type="logical" name="L2ORDER"> F  </i>
   <i type="logical" name="LMP2LT"> F  </i>
   <i type="logical" name="LUSEW"> F  </i>
   <i name="ENCUTGW">     -2.00000000</i>
   <i name="ENCUTGWSOFT">     -2.00000000</i>
   <i name="ENCUTLF">     -1.00000000</i>
   <i type="int" name="LMAXMP2">    -1</i>
   <i name="SCISSOR">      0.00000000</i>
   <i type="int" name="NOMEGA">     0</i>
   <i type="int" name="NOMEGAR">     0</i>
   <i type="int" name="NBANDSGW">    -1</i>
   <i type="int" name="NBANDSO">    -1</i>
   <i type="int" name="NBANDSV">    -1</i>
   <i type="int" name="NELM">   260</i>
   <i type="int" name="NELMHF">     1</i>
   <i type="int" name="DIM">     3</i>
   <i type="int" name="ANTIRES">     0</i>
   <i name="OMEGAMAX">    -30.00000000</i>
   <i name="OMEGAMIN">    -30.00000000</i>
   <i name="OMEGATL">   -200.00000000</i>
   <i type="int" name="OMEGAGRID">   140</i>
   <i name="CSHIFT">     -0.10000000</i>
   <i type="logical" name="SELFENERGY"> F  </i>
   <i type="logical" name="LSPECTRAL"> F  </i>
   <i type="logical" name="LSPECTRALGW"> F  </i>
   <i type="logical" name="LSINGLES"> F  </i>
   <i type="logical" name="LFERMIGW"> F  </i>
   <i type="logical" name="ODDONLYGW"> F  </i>
   <i type="logical" name="EVENONLYGW"> F  </i>
   <i type="int" name="NKREDLFX">     1</i>
   <i type="int" name="NKREDLFY">     1</i>
   <i type="int" name="NKREDLFZ">     1</i>
   <i type="int" name="MAXMEM">  2800</i>
   <i type="int" name="TELESCOPE">     0</i>
   <i type="int" name="TAUPAR">     1</i>
   <i type="int" name="OMEGAPAR">    -1</i>
   <i name="LAMBDA">      1.00000000</i>
  </separator>
  <separator name="External order field" >
   <i name="OFIELD_KAPPA">      0.00000000</i>
   <v name="OFIELD_K">      0.00000000      0.00000000      0.00000000</v>
   <i name="OFIELD_Q6_NEAR">      0.00000000</i>
   <i name="OFIELD_Q6_FAR">      0.00000000</i>
   <i name="OFIELD_A">      0.00000000</i>
  </separator>
  <separator name="solvation model" >
   <i type="logical" name="LSOL"> F  </i>
  </separator>
 </parameters>
 <atominfo>
  <atoms>     100 </atoms>
  <types>       4 </types>
  <array name="atoms" >
   <dimension dim="1">ion</dimension>
   <field type="string">element</field>
   <field type="int">atomtype</field>
   <set>
    <rc><c>Ir</c><c>   1</c></rc>
    <rc><c>Ir</c><c>   1</c></rc>
    <rc><c>Ir</c><c>   1</c></rc>
    <rc><c>Ir</c><c>   1</c></rc>
    <rc><c>Ir</c><c>   1</c></rc>
    <rc><c>Ir</c><c>   1</c></rc>
    <rc><c>Ir</c><c>   1</c></rc>
    <rc><c>Ir</c><c>   1</c></rc>
    <rc><c>Ir</c><c>   1</c></rc>
    <rc><c>Ir</c><c>   1</c></rc>
    <rc><c>Ir</c><c>   1</c></rc>
    <rc><c>Ir</c><c>   1</c></rc>
    <rc><c>Ir</c><c>   1</c></rc>
    <rc><c>Ir</c><c>   1</c></rc>
    <rc><c>Ir</c><c>   1</c></rc>
    <rc><c>Ir</c><c>   1</c></rc>
    <rc><c>O </c><c>   2</c></rc>
    <rc><c>O </c><c>   2</c></rc>
    <rc><c>O </c><c>   2</c></rc>
    <rc><c>O </c><c>   2</c></rc>
    <rc><c>O </c><c>   2</c></rc>
    <rc><c>O </c><c>   2</c></rc>
    <rc><c>O </c><c>   2</c></rc>
    <rc><c>O </c><c>   2</c></rc>
    <rc><c>O </c><c>   2</c></rc>
    <rc><c>O </c><c>   2</c></rc>
    <rc><c>O </c><c>   2</c></rc>
    <rc><c>O </c><c>   2</c></rc>
    <rc><c>O </c><c>   2</c></rc>
    <rc><c>O </c><c>   2</c></rc>
    <rc><c>O </c><c>   2</c></rc>
    <rc><c>O </c><c>   2</c></rc>
    <rc><c>O </c><c>   2</c></rc>
    <rc><c>O </c><c>   2</c></rc>
    <rc><c>O </c><c>   2</c></rc>
    <rc><c>O </c><c>   2</c></rc>
    <rc><c>O </c><c>   2</c></rc>
    <rc><c>O </c><c>   2</c></rc>
    <rc><c>O </c><c>   2</c></rc>
    <rc><c>O </c><c>   2</c></rc>
    <rc><c>O </c><c>   2</c></rc>
    <rc><c>O </c><c>   2</c></rc>
    <rc><c>O </c><c>   2</c></rc>
    <rc><c>O </c><c>   2</c></rc>
    <rc><c>O </c><c>   2</c></rc>
    <rc><c>O </c><c>   2</c></rc>
    <rc><c>O </c><c>   2</c></rc>
    <rc><c>O </c><c>   2</c></rc>
    <rc><c>O </c><c>   2</c></rc>
    <rc><c>O </c><c>   2</c></rc>
    <rc><c>Ir</c><c>   3</c></rc>
    <rc><c>Ir</c><c>   3</c></rc>
    <rc><c>Ir</c><c>   3</c></rc>
    <rc><c>Ir</c><c>   3</c></rc>
    <rc><c>Ir</c><c>   3</c></rc>
    <rc><c>Ir</c><c>   3</c></rc>
    <rc><c>Ir</c><c>   3</c></rc>
    <rc><c>Ir</c><c>   3</c></rc>
    <rc><c>Ir</c><c>   3</c></rc>
    <rc><c>Ir</c><c>   3</c></rc>
    <rc><c>Ir</c><c>   3</c></rc>
    <rc><c>Ir</c><c>   3</c></rc>
    <rc><c>Ir</c><c>   3</c></rc>
    <rc><c>Ir</c><c>   3</c></rc>
    <rc><c>Ir</c><c>   3</c></rc>
    <rc><c>Ir</c><c>   3</c></rc>
    <rc><c>O </c><c>   4</c></rc>
    <rc><c>O </c><c>   4</c></rc>
    <rc><c>O </c><c>   4</c></rc>
    <rc><c>O </c><c>   4</c></rc>
    <rc><c>O </c><c>   4</c></rc>
    <rc><c>O </c><c>   4</c></rc>
    <rc><c>O </c><c>   4</c></rc>
    <rc><c>O </c><c>   4</c></rc>
    <rc><c>O </c><c>   4</c></rc>
    <rc><c>O </c><c>   4</c></rc>
    <rc><c>O </c><c>   4</c></rc>
    <rc><c>O </c><c>   4</c></rc>
    <rc><c>O </c><c>   4</c></rc>
    <rc><c>O </c><c>   4</c></rc>
    <rc><c>O </c><c>   4</c></rc>
    <rc><c>O </c><c>   4</c></rc>
    <rc><c>O </c><c>   4</c></rc>
    <rc><c>O </c><c>   4</c></rc>
    <rc><c>O </c><c>   4</c></rc>
    <rc><c>O </c><c>   4</c></rc>
    <rc><c>O </c><c>   4</c></rc>
    <rc><c>O </c><c>   4</c></rc>
    <rc><c>O </c><c>   4</c></rc>
    <rc><c>O </c><c>   4</c></rc>
    <rc><c>O </c><c>   4</c></rc>
    <rc><c>O </c><c>   4</c></rc>
    <rc><c>O </c><c>   4</c></rc>
    <rc><c>O </c><c>   4</c></rc>
    <rc><c>O </c><c>   4</c></rc>
    <rc><c>O </c><c>   4</c></rc>
    <rc><c>O </c><c>   4</c></rc>
    <rc><c>O </c><c>   4</c></rc>
    <rc><c>O </c><c>   4</c></rc>
    <rc><c>O </c><c>   4</c></rc>
   </set>
  </array>
  <array name="atomtypes" >
   <dimension dim="1">type</dimension>
   <field type="int">atomspertype</field>
   <field type="string">element</field>
   <field>mass</field>
   <field>valence</field>
   <field type="string">pseudopotential</field>
   <set>
    <rc><c>  16</c><c>Ir</c><c>    192.22000000</c><c>      9.00000000</c><c>  PAW_PBE Ir 06Sep2000                  </c></rc>
    <rc><c>  34</c><c>O </c><c>     16.00000000</c><c>      6.00000000</c><c>  PAW_PBE O 08Apr2002                   </c></rc>
    <rc><c>  16</c><c>Ir</c><c>    192.22000000</c><c>      9.00000000</c><c>  PAW_PBE Ir 06Sep2000                  </c></rc>
    <rc><c>  34</c><c>O </c><c>     16.00000000</c><c>      6.00000000</c><c>  PAW_PBE O 08Apr2002                   </c></rc>
   </set>
  </array>
 </atominfo>
 <structure name="initialpos" >
  <crystal>
   <varray name="basis" >
    <v>      12.80853200       0.00000000       0.00000000 </v>
    <v>       0.00000000       6.47024300       0.00000000 </v>
    <v>       0.00000000       0.00000000      25.88097200 </v>
   </varray>
   <i name="volume">   2144.86781344 </i>
   <varray name="rec_basis" >
    <v>       0.07807296       0.00000000       0.00000000 </v>
    <v>       0.00000000       0.15455370       0.00000000 </v>
    <v>       0.00000000       0.00000000       0.03863843 </v>
   </varray>
  </crystal>
  <varray name="positions" >
   <v>       0.12500000       0.50000000       0.18750000 </v>
   <v>       0.37500000       0.50000000       0.18750000 </v>
   <v>       0.12500000       0.00000000       0.06250000 </v>
   <v>       0.37500000       0.00000000       0.06250000 </v>
   <v>       0.00000000       0.50000000       0.06250000 </v>
   <v>       0.25000000       0.50000000       0.06250000 </v>
   <v>       0.00000000       0.00000000       0.18750000 </v>
   <v>       0.25000000       0.00000000       0.18750000 </v>
   <v>       0.12485379       0.50000000       0.43800764 </v>
   <v>       0.37452250       0.50000000       0.43867343 </v>
   <v>       0.12475721       0.00000000       0.31358560 </v>
   <v>       0.37369576       0.00000000       0.31313609 </v>
   <v>       0.99993882       0.50000000       0.31303677 </v>
   <v>       0.24981469       0.50000000       0.31298880 </v>
   <v>       0.99877300       0.00000000       0.44231523 </v>
   <v>       0.25097341       0.00000000       0.44206357 </v>
   <v>       0.00000000       0.50000000       0.13961000 </v>
   <v>       0.25000000       0.50000000       0.13961000 </v>
   <v>       0.00000000       0.00000000       0.01461000 </v>
   <v>       0.25000000       0.00000000       0.01461000 </v>
   <v>       0.12500000       0.80844000       0.18750000 </v>
   <v>       0.37500000       0.80844000       0.18750000 </v>
   <v>       0.12500000       0.30844000       0.06250000 </v>
   <v>       0.37500000       0.30844000       0.06250000 </v>
   <v>       0.00000000       0.50000000       0.23539000 </v>
   <v>       0.25000000       0.50000000       0.23539000 </v>
   <v>       0.00000000       0.00000000       0.11039000 </v>
   <v>       0.25000000       0.00000000       0.11039000 </v>
   <v>       0.12500000       0.19156000       0.18750000 </v>
   <v>       0.37500000       0.19156000       0.18750000 </v>
   <v>       0.12500000       0.69156000       0.06250000 </v>
   <v>       0.37500000       0.69156000       0.06250000 </v>
   <v>       0.99986891       0.50000000       0.38974426 </v>
   <v>       0.24981054       0.50000000       0.38961764 </v>
   <v>       0.00023579       0.00000000       0.26504881 </v>
   <v>       0.24929351       0.00000000       0.26497213 </v>
   <v>       0.12472399       0.80927020       0.43568366 </v>
   <v>       0.37554535       0.81044748       0.43922492 </v>
   <v>       0.12466626       0.30822676       0.31283733 </v>
   <v>       0.37476549       0.30820207       0.31297128 </v>
   <v>       0.00089925       0.50000000       0.48383167 </v>
   <v>       0.24887661       0.50000000       0.48380354 </v>
   <v>       0.99999434       0.00000000       0.36220260 </v>
   <v>       0.24971845       0.00000000       0.36199288 </v>
   <v>       0.12472399       0.19072980       0.43568366 </v>
   <v>       0.37554535       0.18955252       0.43922492 </v>
   <v>       0.12466626       0.69177324       0.31283733 </v>
   <v>       0.37476549       0.69179793       0.31297128 </v>
   <v>       0.24500098       0.00000000       0.51089999 </v>
   <v>       0.00444294       0.00000000       0.51116956 </v>
   <v>       0.62500000       0.50000000       0.18750000 </v>
   <v>       0.87500000       0.50000000       0.18750000 </v>
   <v>       0.62500000       0.00000000       0.06250000 </v>
   <v>       0.87500000       0.00000000       0.06250000 </v>
   <v>       0.50000000       0.50000000       0.06250000 </v>
   <v>       0.75000000       0.50000000       0.06250000 </v>
   <v>       0.50000000       0.00000000       0.18750000 </v>
   <v>       0.75000000       0.00000000       0.18750000 </v>
   <v>       0.62494236       0.50000000       0.43949639 </v>
   <v>       0.87529163       0.50000000       0.43880979 </v>
   <v>       0.62504051       0.00000000       0.31318663 </v>
   <v>       0.87615778       0.00000000       0.31327275 </v>
   <v>       0.49988084       0.50000000       0.31330363 </v>
   <v>       0.75002555       0.50000000       0.31332693 </v>
   <v>       0.50151088       0.00000000       0.43831374 </v>
   <v>       0.74842898       0.00000000       0.43875871 </v>
   <v>       0.50000000       0.50000000       0.13961000 </v>
   <v>       0.75000000       0.50000000       0.13961000 </v>
   <v>       0.50000000       0.00000000       0.01461000 </v>
   <v>       0.75000000       0.00000000       0.01461000 </v>
   <v>       0.62500000       0.80844000       0.18750000 </v>
   <v>       0.87500000       0.80844000       0.18750000 </v>
   <v>       0.62500000       0.30844000       0.06250000 </v>
   <v>       0.87500000       0.30844000       0.06250000 </v>
   <v>       0.50000000       0.50000000       0.23539000 </v>
   <v>       0.75000000       0.50000000       0.23539000 </v>
   <v>       0.50000000       0.00000000       0.11039000 </v>
   <v>       0.75000000       0.00000000       0.11039000 </v>
   <v>       0.62500000       0.19156000       0.18750000 </v>
   <v>       0.87500000       0.19156000       0.18750000 </v>
   <v>       0.62500000       0.69156000       0.06250000 </v>
   <v>       0.87500000       0.69156000       0.06250000 </v>
   <v>       0.49992674       0.50000000       0.39036267 </v>
   <v>       0.75001624       0.50000000       0.39038988 </v>
   <v>       0.49995366       0.00000000       0.26499837 </v>
   <v>       0.75016566       0.00000000       0.26499705 </v>
   <v>       0.62497616       0.80872782       0.44125040 </v>
   <v>       0.87433055       0.81033073       0.43967270 </v>
   <v>       0.62486804       0.30821655       0.31330254 </v>
   <v>       0.87531281       0.30809786       0.31308993 </v>
   <v>       0.49951346       0.50000000       0.48487600 </v>
   <v>       0.75040443       0.50000000       0.48499898 </v>
   <v>       0.49958760       0.00000000       0.36089798 </v>
   <v>       0.75042740       0.00000000       0.36109984 </v>
   <v>       0.62497616       0.19127218       0.44125040 </v>
   <v>       0.87433055       0.18966927       0.43967270 </v>
   <v>       0.62486804       0.69178345       0.31330254 </v>
   <v>       0.87531281       0.69190214       0.31308993 </v>
   <v>       0.67575982       0.00000000       0.54648253 </v>
   <v>       0.57756451       0.00000000       0.54724656 </v>
  </varray>
  <varray name="selective"  type="logical" >
   <v type="logical" >  F  F  F </v>
   <v type="logical" >  F  F  F </v>
   <v type="logical" >  F  F  F </v>
   <v type="logical" >  F  F  F </v>
   <v type="logical" >  F  F  F </v>
   <v type="logical" >  F  F  F </v>
   <v type="logical" >  F  F  F </v>
   <v type="logical" >  F  F  F </v>
   <v type="logical" >  F  F  F </v>
   <v type="logical" >  F  F  F </v>
   <v type="logical" >  F  F  F </v>
   <v type="logical" >  F  F  F </v>
   <v type="logical" >  F  F  F </v>
   <v type="logical" >  F  F  F </v>
   <v type="logical" >  F  F  F </v>
   <v type="logical" >  F  F  F </v>
   <v type="logical" >  F  F  F </v>
   <v type="logical" >  F  F  F </v>
   <v type="logical" >  F  F  F </v>
   <v type="logical" >  F  F  F </v>
   <v type="logical" >  F  F  F </v>
   <v type="logical" >  F  F  F </v>
   <v type="logical" >  F  F  F </v>
   <v type="logical" >  F  F  F </v>
   <v type="logical" >  F  F  F </v>
   <v type="logical" >  F  F  F </v>
   <v type="logical" >  F  F  F </v>
   <v type="logical" >  F  F  F </v>
   <v type="logical" >  F  F  F </v>
   <v type="logical" >  F  F  F </v>
   <v type="logical" >  F  F  F </v>
   <v type="logical" >  F  F  F </v>
   <v type="logical" >  F  F  F </v>
   <v type="logical" >  F  F  F </v>
   <v type="logical" >  F  F  F </v>
   <v type="logical" >  F  F  F </v>
   <v type="logical" >  F  F  F </v>
   <v type="logical" >  F  F  F </v>
   <v type="logical" >  F  F  F </v>
   <v type="logical" >  F  F  F </v>
   <v type="logical" >  F  F  F </v>
   <v type="logical" >  F  F  F </v>
   <v type="logical" >  F  F  F </v>
   <v type="logical" >  F  F  F </v>
   <v type="logical" >  F  F  F </v>
   <v type="logical" >  F  F  F </v>
   <v type="logical" >  F  F  F </v>
   <v type="logical" >  F  F  F </v>
   <v type="logical" >  F  F  F </v>
   <v type="logical" >  F  F  F </v>
   <v type="logical" >  F  F  F </v>
   <v type="logical" >  F  F  F </v>
   <v type="logical" >  F  F  F </v>
   <v type="logical" >  F  F  F </v>
   <v type="logical" >  F  F  F </v>
   <v type="logical" >  F  F  F </v>
   <v type="logical" >  F  F  F </v>
   <v type="logical" >  F  F  F </v>
   <v type="logical" >  F  F  F </v>
   <v type="logical" >  F  F  F </v>
   <v type="logical" >  F  F  F </v>
   <v type="logical" >  F  F  F </v>
   <v type="logical" >  F  F  F </v>
   <v type="logical" >  F  F  F </v>
   <v type="logical" >  T  T  T </v>
   <v type="logical" >  T  T  T </v>
   <v type="logical" >  F  F  F </v>
   <v type="logical" >  F  F  F </v>
   <v type="logical" >  F  F  F </v>
   <v type="logical" >  F  F  F </v>
   <v type="logical" >  F  F  F </v>
   <v type="logical" >  F  F  F </v>
   <v type="logical" >  F  F  F </v>
   <v type="logical" >  F  F  F </v>
   <v type="logical" >  F  F  F </v>
   <v type="logical" >  F  F  F </v>
   <v type="logical" >  F  F  F </v>
   <v type="logical" >  F  F  F </v>
   <v type="logical" >  F  F  F </v>
   <v type="logical" >  F  F  F </v>
   <v type="logical" >  F  F  F </v>
   <v type="logical" >  F  F  F </v>
   <v type="logical" >  F  F  F </v>
   <v type="logical" >  F  F  F </v>
   <v type="logical" >  F  F  F </v>
   <v type="logical" >  F  F  F </v>
   <v type="logical" >  F  F  F </v>
   <v type="logical" >  F  F  F </v>
   <v type="logical" >  F  F  F </v>
   <v type="logical" >  F  F  F </v>
   <v type="logical" >  F  F  F </v>
   <v type="logical" >  F  F  F </v>
   <v type="logical" >  F  F  F </v>
   <v type="logical" >  F  F  F </v>
   <v type="logical" >  F  F  F </v>
   <v type="logical" >  F  F  F </v>
   <v type="logical" >  F  F  F </v>
   <v type="logical" >  F  F  F </v>
   <v type="logical" >  T  T  T </v>
   <v type="logical" >  T  T  T </v>
  </varray>
  <nose>
   <v>      -3.00000000       0.00000000       0.00010000       0.00010000 </v>
  </nose>
 </structure>
 <calculation>
  <scstep>
   <time name="dav">    6.67    6.71</time>
   <time name="total">    6.73    6.78</time>
   <energy>
    <i name="alphaZ">   1826.57435200 </i>
    <i name="ewald"> 225283.19491581 </i>
    <i name="hartreedc">-272195.34989953 </i>
    <i name="XCdc">   1306.22926845 </i>
    <i name="pawpsdc">  41253.49563999 </i>
    <i name="pawaedc"> -40037.16674060 </i>
    <i name="eentropy">     -0.03976547 </i>
    <i name="bandstr">   2933.12929550 </i>
    <i name="atom">  47298.05697971 </i>
    <i name="e_fr_energy">   7668.12404585 </i>
    <i name="e_wo_entrp">   7668.16381131 </i>
    <i name="e_0_energy">   7668.14392858 </i>
   </energy>
  </scstep>
  <scstep>
   <time name="dav">    6.89    6.91</time>
   <time name="total">    6.89    6.91</time>
   <energy>
    <i name="e_fr_energy">    495.02239270 </i>
    <i name="e_wo_entrp">    495.05774029 </i>
    <i name="e_0_energy">    495.04006650 </i>
   </energy>
  </scstep>
  <scstep>
   <time name="dav">    8.98    9.01</time>
   <time name="total">    8.98    9.01</time>
   <energy>
    <i name="e_fr_energy">   -724.55398579 </i>
    <i name="e_wo_entrp">   -724.48058724 </i>
    <i name="e_0_energy">   -724.51728651 </i>
   </energy>
  </scstep>
  <scstep>
   <time name="dav">    7.93    7.95</time>
   <time name="total">    7.93    7.95</time>
   <energy>
    <i name="e_fr_energy">   -780.54824448 </i>
    <i name="e_wo_entrp">   -780.46263069 </i>
    <i name="e_0_energy">   -780.50543758 </i>
   </energy>
  </scstep>
  <scstep>
   <time name="dav">    8.24    8.27</time>
   <time name="total">    8.57    8.60</time>
   <energy>
    <i name="e_fr_energy">   -782.32019203 </i>
    <i name="e_wo_entrp">   -782.23376718 </i>
    <i name="e_0_energy">   -782.27697960 </i>
   </energy>
  </scstep>
  <scstep>
   <time name="diag">    1.31    1.31</time>
   <time name="diis">    3.78    3.79</time>
   <time name="orth">    0.29    0.29</time>
   <time name="total">    5.74    5.76</time>
   <energy>
    <i name="e_fr_energy">   -708.23453139 </i>
    <i name="e_wo_entrp">   -708.19439558 </i>
    <i name="e_0_energy">   -708.21446349 </i>
   </energy>
  </scstep>
  <scstep>
   <time name="diag">    1.31    1.31</time>
   <time name="diis">    4.08    4.09</time>
   <time name="orth">    0.29    0.29</time>
   <time name="total">    6.05    6.06</time>
   <energy>
    <i name="e_fr_energy">  -1150.78317597 </i>
    <i name="e_wo_entrp">  -1150.74113347 </i>
    <i name="e_0_energy">  -1150.76215472 </i>
   </energy>
  </scstep>
  <scstep>
   <time name="diag">    1.31    1.31</time>
   <time name="diis">    3.91    3.92</time>
   <time name="orth">    0.29    0.29</time>
   <time name="total">    5.88    5.90</time>
   <energy>
    <i name="e_fr_energy">   -928.86750262 </i>
    <i name="e_wo_entrp">   -928.82935433 </i>
    <i name="e_0_energy">   -928.84842848 </i>
   </energy>
  </scstep>
  <scstep>
   <time name="diag">    1.31    1.31</time>
   <time name="diis">    3.79    3.82</time>
   <time name="orth">    0.28    0.31</time>
   <time name="total">    5.76    5.82</time>
   <energy>
    <i name="e_fr_energy">   -958.99013434 </i>
    <i name="e_wo_entrp">   -958.92397383 </i>
    <i name="e_0_energy">   -958.95705408 </i>
   </energy>
  </scstep>
  <scstep>
   <time name="diag">    1.31    1.31</time>
   <time name="diis">    3.93    3.94</time>
   <time name="orth">    0.29    0.29</time>
   <time name="total">    5.89    5.91</time>
   <energy>
    <i name="e_fr_energy">   -860.81154471 </i>
    <i name="e_wo_entrp">   -860.77009632 </i>
    <i name="e_0_energy">   -860.79082051 </i>
   </energy>
  </scstep>
  <scstep>
   <time name="diag">    1.31    1.31</time>
   <time name="diis">    3.77    3.78</time>
   <time name="orth">    0.29    0.29</time>
   <time name="total">    5.74    5.75</time>
   <energy>
    <i name="e_fr_energy">   -750.61856571 </i>
    <i name="e_wo_entrp">   -750.57071121 </i>
    <i name="e_0_energy">   -750.59463846 </i>
   </energy>
  </scstep>
  <scstep>
   <time name="diag">    1.31    1.31</time>
   <time name="diis">    3.74    3.75</time>
   <time name="orth">    0.29    0.29</time>
   <time name="total">    5.71    5.72</time>
   <energy>
    <i name="e_fr_energy">   -674.66935831 </i>
    <i name="e_wo_entrp">   -674.59670414 </i>
    <i name="e_0_energy">   -674.63303123 </i>
   </energy>
  </scstep>
  <scstep>
   <time name="diag">    1.31    1.31</time>
   <time name="diis">    3.98    3.99</time>
   <time name="orth">    0.29    0.29</time>
   <time name="total">    5.94    5.96</time>
   <energy>
    <i name="e_fr_energy">   -663.88813763 </i>
    <i name="e_wo_entrp">   -663.81278784 </i>
    <i name="e_0_energy">   -663.85046274 </i>
   </energy>
  </scstep>
  <scstep>
   <time name="diag">    1.31    1.31</time>
   <time name="diis">    4.00    4.01</time>
   <time name="orth">    0.29    0.29</time>
   <time name="total">    5.97    5.98</time>
   <energy>
    <i name="e_fr_energy">   -655.86656729 </i>
    <i name="e_wo_entrp">   -655.79382451 </i>
    <i name="e_0_energy">   -655.83019590 </i>
   </energy>
  </scstep>
  <scstep>
   <time name="diag">    1.31    1.31</time>
   <time name="diis">    3.73    3.74</time>
   <time name="orth">    0.29    0.29</time>
   <time name="total">    5.70    5.73</time>
   <energy>
    <i name="e_fr_energy">   -645.85985711 </i>
    <i name="e_wo_entrp">   -645.79722386 </i>
    <i name="e_0_energy">   -645.82854048 </i>
   </energy>
  </scstep>
  <scstep>
   <time name="diag">    1.31    1.31</time>
   <time name="diis">    3.77    3.78</time>
   <time name="orth">    0.29    0.29</time>
   <time name="total">    5.74    5.76</time>
   <energy>
    <i name="e_fr_energy">   -642.07867900 </i>
    <i name="e_wo_entrp">   -641.99735710 </i>
    <i name="e_0_energy">   -642.03801805 </i>
   </energy>
  </scstep>
  <scstep>
   <time name="diag">    1.31    1.31</time>
   <time name="diis">    3.76    3.77</time>
   <time name="orth">    0.29    0.29</time>
   <time name="total">    5.73    5.75</time>
   <energy>
    <i name="e_fr_energy">   -639.53773716 </i>
    <i name="e_wo_entrp">   -639.43538737 </i>
    <i name="e_0_energy">   -639.48656226 </i>
   </energy>
  </scstep>
  <scstep>
   <time name="diag">    1.31    1.31</time>
   <time name="diis">    3.91    3.92</time>
   <time name="orth">    0.29    0.29</time>
   <time name="total">    5.88    5.90</time>
   <energy>
    <i name="e_fr_energy">   -637.42391841 </i>
    <i name="e_wo_entrp">   -637.31759570 </i>
    <i name="e_0_energy">   -637.37075706 </i>
   </energy>
  </scstep>
  <scstep>
   <time name="diag">    1.31    1.31</time>
   <time name="diis">    4.11    4.12</time>
   <time name="orth">    0.29    0.29</time>
   <time name="total">    6.08    6.09</time>
   <energy>
    <i name="e_fr_energy">   -637.23412161 </i>
    <i name="e_wo_entrp">   -637.14344278 </i>
    <i name="e_0_energy">   -637.18878219 </i>
   </energy>
  </scstep>
  <scstep>
   <time name="diag">    1.31    1.31</time>
   <time name="diis">    3.76    3.76</time>
   <time name="orth">    0.29    0.29</time>
   <time name="total">    5.73    5.74</time>
   <energy>
    <i name="e_fr_energy">   -637.27832582 </i>
    <i name="e_wo_entrp">   -637.19713895 </i>
    <i name="e_0_energy">   -637.23773239 </i>
   </energy>
  </scstep>
  <scstep>
   <time name="diag">    1.31    1.31</time>
   <time name="diis">    3.72    3.73</time>
   <time name="orth">    0.29    0.29</time>
   <time name="total">    5.70    5.71</time>
   <energy>
    <i name="e_fr_energy">   -636.50727400 </i>
    <i name="e_wo_entrp">   -636.42139821 </i>
    <i name="e_0_energy">   -636.46433611 </i>
   </energy>
  </scstep>
  <scstep>
   <time name="diag">    1.31    1.31</time>
   <time name="diis">    3.72    3.74</time>
   <time name="orth">    0.29    0.29</time>
   <time name="total">    5.69    5.71</time>
   <energy>
    <i name="e_fr_energy">   -636.21855042 </i>
    <i name="e_wo_entrp">   -636.14145456 </i>
    <i name="e_0_energy">   -636.18000249 </i>
   </energy>
  </scstep>
  <scstep>
   <time name="diag">    1.30    1.31</time>
   <time name="diis">    3.75    3.76</time>
   <time name="orth">    0.29    0.29</time>
   <time name="total">    5.71    5.73</time>
   <energy>
    <i name="e_fr_energy">   -636.06342093 </i>
    <i name="e_wo_entrp">   -635.98851581 </i>
    <i name="e_0_energy">   -636.02596837 </i>
   </energy>
  </scstep>
  <scstep>
   <time name="diag">    1.31    1.31</time>
   <time name="diis">    3.87    3.88</time>
   <time name="orth">    0.29    0.29</time>
   <time name="total">    5.84    5.85</time>
   <energy>
    <i name="e_fr_energy">   -635.97917833 </i>
    <i name="e_wo_entrp">   -635.90979076 </i>
    <i name="e_0_energy">   -635.94448454 </i>
   </energy>
  </scstep>
  <scstep>
   <time name="diag">    1.31    1.31</time>
   <time name="diis">    3.86    3.87</time>
   <time name="orth">    0.29    0.29</time>
   <time name="total">    5.83    5.84</time>
   <energy>
    <i name="e_fr_energy">   -635.83048710 </i>
    <i name="e_wo_entrp">   -635.74992398 </i>
    <i name="e_0_energy">   -635.79020554 </i>
   </energy>
  </scstep>
  <scstep>
   <time name="diag">    1.31    1.31</time>
   <time name="diis">    3.74    3.75</time>
   <time name="orth">    0.29    0.29</time>
   <time name="total">    5.71    5.74</time>
   <energy>
    <i name="e_fr_energy">   -635.73878181 </i>
    <i name="e_wo_entrp">   -635.65517828 </i>
    <i name="e_0_energy">   -635.69698005 </i>
   </energy>
  </scstep>
  <scstep>
   <time name="diag">    1.31    1.31</time>
   <time name="diis">    3.75    3.75</time>
   <time name="orth">    0.29    0.29</time>
   <time name="total">    5.72    5.73</time>
   <energy>
    <i name="e_fr_energy">   -635.62731500 </i>
    <i name="e_wo_entrp">   -635.52770571 </i>
    <i name="e_0_energy">   -635.57751036 </i>
   </energy>
  </scstep>
  <scstep>
   <time name="diag">    1.31    1.31</time>
   <time name="diis">    3.72    3.73</time>
   <time name="orth">    0.29    0.29</time>
   <time name="total">    5.69    5.71</time>
   <energy>
    <i name="e_fr_energy">   -635.60578536 </i>
    <i name="e_wo_entrp">   -635.51491698 </i>
    <i name="e_0_energy">   -635.56035117 </i>
   </energy>
  </scstep>
  <scstep>
   <time name="diag">    1.31    1.31</time>
   <time name="diis">    3.73    3.74</time>
   <time name="orth">    0.29    0.29</time>
   <time name="total">    5.70    5.72</time>
   <energy>
    <i name="e_fr_energy">   -635.60418651 </i>
    <i name="e_wo_entrp">   -635.49689590 </i>
    <i name="e_0_energy">   -635.55054121 </i>
   </energy>
  </scstep>
  <scstep>
   <time name="diag">    1.31    1.31</time>
   <time name="diis">    3.76    3.77</time>
   <time name="orth">    0.29    0.29</time>
   <time name="total">    5.73    5.74</time>
   <energy>
    <i name="e_fr_energy">   -635.56977853 </i>
    <i name="e_wo_entrp">   -635.46178346 </i>
    <i name="e_0_energy">   -635.51578099 </i>
   </energy>
  </scstep>
  <scstep>
   <time name="diag">    1.31    1.31</time>
   <time name="diis">    3.75    3.76</time>
   <time name="orth">    0.29    0.29</time>
   <time name="total">    5.72    5.73</time>
   <energy>
    <i name="e_fr_energy">   -635.57633065 </i>
    <i name="e_wo_entrp">   -635.47156691 </i>
    <i name="e_0_energy">   -635.52394878 </i>
   </energy>
  </scstep>
  <scstep>
   <time name="diag">    1.30    1.31</time>
   <time name="diis">    3.72    3.73</time>
   <time name="orth">    0.29    0.29</time>
   <time name="total">    5.69    5.71</time>
   <energy>
    <i name="e_fr_energy">   -635.57162781 </i>
    <i name="e_wo_entrp">   -635.46435052 </i>
    <i name="e_0_energy">   -635.51798917 </i>
   </energy>
  </scstep>
  <scstep>
   <time name="diag">    1.31    1.31</time>
   <time name="diis">    3.74    3.75</time>
   <time name="orth">    0.29    0.29</time>
   <time name="total">    5.71    5.73</time>
   <energy>
    <i name="e_fr_energy">   -635.56379799 </i>
    <i name="e_wo_entrp">   -635.45672835 </i>
    <i name="e_0_energy">   -635.51026317 </i>
   </energy>
  </scstep>
  <scstep>
   <time name="diag">    1.31    1.31</time>
   <time name="diis">    3.72    3.73</time>
   <time name="orth">    0.29    0.29</time>
   <time name="total">    5.69    5.71</time>
   <energy>
    <i name="e_fr_energy">   -635.54782704 </i>
    <i name="e_wo_entrp">   -635.44012687 </i>
    <i name="e_0_energy">   -635.49397696 </i>
   </energy>
  </scstep>
  <scstep>
   <time name="diag">    1.30    1.31</time>
   <time name="diis">    3.70    3.74</time>
   <time name="orth">    0.29    0.29</time>
   <time name="total">    5.67    5.71</time>
   <energy>
    <i name="e_fr_energy">   -635.54387269 </i>
    <i name="e_wo_entrp">   -635.43592573 </i>
    <i name="e_0_energy">   -635.48989921 </i>
   </energy>
  </scstep>
  <scstep>
   <time name="diag">    1.31    1.31</time>
   <time name="diis">    3.84    3.85</time>
   <time name="orth">    0.29    0.29</time>
   <time name="total">    5.81    5.82</time>
   <energy>
    <i name="e_fr_energy">   -635.53691230 </i>
    <i name="e_wo_entrp">   -635.42872809 </i>
    <i name="e_0_energy">   -635.48282020 </i>
   </energy>
  </scstep>
  <scstep>
   <time name="diag">    1.31    1.31</time>
   <time name="diis">    3.74    3.75</time>
   <time name="orth">    0.29    0.29</time>
   <time name="total">    5.72    5.74</time>
   <energy>
    <i name="e_fr_energy">   -635.53584843 </i>
    <i name="e_wo_entrp">   -635.42772842 </i>
    <i name="e_0_energy">   -635.48178842 </i>
   </energy>
  </scstep>
  <scstep>
   <time name="diag">    1.31    1.31</time>
   <time name="diis">    3.72    3.73</time>
   <time name="orth">    0.29    0.29</time>
   <time name="total">    5.70    5.71</time>
   <energy>
    <i name="e_fr_energy">   -635.53274307 </i>
    <i name="e_wo_entrp">   -635.42424976 </i>
    <i name="e_0_energy">   -635.47849641 </i>
   </energy>
  </scstep>
  <scstep>
   <time name="diag">    1.31    1.31</time>
   <time name="diis">    3.74    3.75</time>
   <time name="orth">    0.29    0.29</time>
   <time name="total">    5.72    5.74</time>
   <energy>
    <i name="e_fr_energy">   -635.52676368 </i>
    <i name="e_wo_entrp">   -635.41817316 </i>
    <i name="e_0_energy">   -635.47246842 </i>
   </energy>
  </scstep>
  <scstep>
   <time name="diag">    1.31    1.31</time>
   <time name="diis">    3.85    3.86</time>
   <time name="orth">    0.29    0.29</time>
   <time name="total">    5.82    5.84</time>
   <energy>
    <i name="e_fr_energy">   -635.52323588 </i>
    <i name="e_wo_entrp">   -635.41434043 </i>
    <i name="e_0_energy">   -635.46878816 </i>
   </energy>
  </scstep>
  <scstep>
   <time name="diag">    1.31    1.31</time>
   <time name="diis">    3.70    3.71</time>
   <time name="orth">    0.29    0.29</time>
   <time name="total">    5.68    5.69</time>
   <energy>
    <i name="e_fr_energy">   -635.52234731 </i>
    <i name="e_wo_entrp">   -635.41344168 </i>
    <i name="e_0_energy">   -635.46789449 </i>
   </energy>
  </scstep>
  <scstep>
   <time name="diag">    1.31    1.31</time>
   <time name="diis">    3.63    3.63</time>
   <time name="orth">    0.29    0.29</time>
   <time name="total">    5.60    5.62</time>
   <energy>
    <i name="e_fr_energy">   -635.52036118 </i>
    <i name="e_wo_entrp">   -635.41140677 </i>
    <i name="e_0_energy">   -635.46588397 </i>
   </energy>
  </scstep>
  <scstep>
   <time name="diag">    1.31    1.31</time>
   <time name="diis">    3.66    3.67</time>
   <time name="orth">    0.29    0.29</time>
   <time name="total">    5.64    5.65</time>
   <energy>
    <i name="e_fr_energy">   -635.51887077 </i>
    <i name="e_wo_entrp">   -635.41004665 </i>
    <i name="e_0_energy">   -635.46445871 </i>
   </energy>
  </scstep>
  <scstep>
   <time name="diag">    1.31    1.31</time>
   <time name="diis">    3.76    3.77</time>
   <time name="orth">    0.29    0.29</time>
   <time name="total">    5.73    5.75</time>
   <energy>
    <i name="e_fr_energy">   -635.51709180 </i>
    <i name="e_wo_entrp">   -635.40814651 </i>
    <i name="e_0_energy">   -635.46261915 </i>
   </energy>
  </scstep>
  <scstep>
   <time name="diag">    1.31    1.31</time>
   <time name="diis">    3.68    3.69</time>
   <time name="orth">    0.29    0.29</time>
   <time name="total">    5.66    5.68</time>
   <energy>
    <i name="e_fr_energy">   -635.51662977 </i>
    <i name="e_wo_entrp">   -635.40768856 </i>
    <i name="e_0_energy">   -635.46215916 </i>
   </energy>
  </scstep>
  <scstep>
   <time name="diag">    1.31    1.31</time>
   <time name="diis">    2.90    2.91</time>
   <time name="orth">    0.29    0.29</time>
   <time name="total">    4.88    4.90</time>
   <energy>
    <i name="e_fr_energy">   -635.51658007 </i>
    <i name="e_wo_entrp">   -635.40769476 </i>
    <i name="e_0_energy">   -635.46213742 </i>
   </energy>
  </scstep>
  <scstep>
   <time name="diag">    1.31    1.32</time>
   <time name="diis">    2.61    2.62</time>
   <time name="orth">    0.29    0.29</time>
   <time name="total">    4.26    4.27</time>
   <energy>
    <i name="alphaZ">   1826.57435200 </i>
    <i name="ewald"> 225283.19491581 </i>
    <i name="hartreedc">-272256.35306307 </i>
    <i name="XCdc">   1350.76215976 </i>
    <i name="pawpsdc">  62166.74902325 </i>
    <i name="pawaedc"> -61062.49029417 </i>
    <i name="eentropy">     -0.10889921 </i>
    <i name="bandstr">  -5241.90175096 </i>
    <i name="atom">  47298.05697971 </i>
    <i name="e_fr_energy">   -635.51657689 </i>
    <i name="e_wo_entrp">   -635.40767768 </i>
    <i name="e_0_energy">   -635.46212728 </i>
   </energy>
  </scstep>
  <structure>
   <crystal>
    <varray name="basis" >
     <v>      12.80853200       0.00000000       0.00000000 </v>
     <v>       0.00000000       6.47024300       0.00000000 </v>
     <v>       0.00000000       0.00000000      25.88097200 </v>
    </varray>
    <i name="volume">   2144.86781344 </i>
    <varray name="rec_basis" >
     <v>       0.07807296       0.00000000       0.00000000 </v>
     <v>       0.00000000       0.15455370       0.00000000 </v>
     <v>       0.00000000       0.00000000       0.03863843 </v>
    </varray>
   </crystal>
   <varray name="positions" >
    <v>       0.12500000       0.50000000       0.18750000 </v>
    <v>       0.37500000       0.50000000       0.18750000 </v>
    <v>       0.12500000       0.00000000       0.06250000 </v>
    <v>       0.37500000       0.00000000       0.06250000 </v>
    <v>       0.00000000       0.50000000       0.06250000 </v>
    <v>       0.25000000       0.50000000       0.06250000 </v>
    <v>       0.00000000       0.00000000       0.18750000 </v>
    <v>       0.25000000       0.00000000       0.18750000 </v>
    <v>       0.12485379       0.50000000       0.43800764 </v>
    <v>       0.37452250       0.50000000       0.43867343 </v>
    <v>       0.12475721       0.00000000       0.31358560 </v>
    <v>       0.37369576       0.00000000       0.31313609 </v>
    <v>       0.99993882       0.50000000       0.31303677 </v>
    <v>       0.24981469       0.50000000       0.31298880 </v>
    <v>       0.99877300       0.00000000       0.44231523 </v>
    <v>       0.25097341       0.00000000       0.44206357 </v>
    <v>       0.00000000       0.50000000       0.13961000 </v>
    <v>       0.25000000       0.50000000       0.13961000 </v>
    <v>       0.00000000       0.00000000       0.01461000 </v>
    <v>       0.25000000       0.00000000       0.01461000 </v>
    <v>       0.12500000       0.80844000       0.18750000 </v>
    <v>       0.37500000       0.80844000       0.18750000 </v>
    <v>       0.12500000       0.30844000       0.06250000 </v>
    <v>       0.37500000       0.30844000       0.06250000 </v>
    <v>       0.00000000       0.50000000       0.23539000 </v>
    <v>       0.25000000       0.50000000       0.23539000 </v>
    <v>       0.00000000       0.00000000       0.11039000 </v>
    <v>       0.25000000       0.00000000       0.11039000 </v>
    <v>       0.12500000       0.19156000       0.18750000 </v>
    <v>       0.37500000       0.19156000       0.18750000 </v>
    <v>       0.12500000       0.69156000       0.06250000 </v>
    <v>       0.37500000       0.69156000       0.06250000 </v>
    <v>       0.99986891       0.50000000       0.38974426 </v>
    <v>       0.24981054       0.50000000       0.38961764 </v>
    <v>       0.00023579       0.00000000       0.26504881 </v>
    <v>       0.24929351       0.00000000       0.26497213 </v>
    <v>       0.12472399       0.80927020       0.43568366 </v>
    <v>       0.37554535       0.81044748       0.43922492 </v>
    <v>       0.12466626       0.30822676       0.31283733 </v>
    <v>       0.37476549       0.30820207       0.31297128 </v>
    <v>       0.00089925       0.50000000       0.48383167 </v>
    <v>       0.24887661       0.50000000       0.48380354 </v>
    <v>       0.99999434       0.00000000       0.36220260 </v>
    <v>       0.24971845       0.00000000       0.36199288 </v>
    <v>       0.12472399       0.19072980       0.43568366 </v>
    <v>       0.37554535       0.18955252       0.43922492 </v>
    <v>       0.12466626       0.69177324       0.31283733 </v>
    <v>       0.37476549       0.69179793       0.31297128 </v>
    <v>       0.24500098       0.00000000       0.51089999 </v>
    <v>       0.00444294       0.00000000       0.51116956 </v>
    <v>       0.62500000       0.50000000       0.18750000 </v>
    <v>       0.87500000       0.50000000       0.18750000 </v>
    <v>       0.62500000       0.00000000       0.06250000 </v>
    <v>       0.87500000       0.00000000       0.06250000 </v>
    <v>       0.50000000       0.50000000       0.06250000 </v>
    <v>       0.75000000       0.50000000       0.06250000 </v>
    <v>       0.50000000       0.00000000       0.18750000 </v>
    <v>       0.75000000       0.00000000       0.18750000 </v>
    <v>       0.62494236       0.50000000       0.43949639 </v>
    <v>       0.87529163       0.50000000       0.43880979 </v>
    <v>       0.62504051       0.00000000       0.31318663 </v>
    <v>       0.87615778       0.00000000       0.31327275 </v>
    <v>       0.49988084       0.50000000       0.31330363 </v>
    <v>       0.75002555       0.50000000       0.31332693 </v>
    <v>       0.50151088       0.00000000       0.43831374 </v>
    <v>       0.74842898       0.00000000       0.43875871 </v>
    <v>       0.50000000       0.50000000       0.13961000 </v>
    <v>       0.75000000       0.50000000       0.13961000 </v>
    <v>       0.50000000       0.00000000       0.01461000 </v>
    <v>       0.75000000       0.00000000       0.01461000 </v>
    <v>       0.62500000       0.80844000       0.18750000 </v>
    <v>       0.87500000       0.80844000       0.18750000 </v>
    <v>       0.62500000       0.30844000       0.06250000 </v>
    <v>       0.87500000       0.30844000       0.06250000 </v>
    <v>       0.50000000       0.50000000       0.23539000 </v>
    <v>       0.75000000       0.50000000       0.23539000 </v>
    <v>       0.50000000       0.00000000       0.11039000 </v>
    <v>       0.75000000       0.00000000       0.11039000 </v>
    <v>       0.62500000       0.19156000       0.18750000 </v>
    <v>       0.87500000       0.19156000       0.18750000 </v>
    <v>       0.62500000       0.69156000       0.06250000 </v>
    <v>       0.87500000       0.69156000       0.06250000 </v>
    <v>       0.49992674       0.50000000       0.39036267 </v>
    <v>       0.75001624       0.50000000       0.39038988 </v>
    <v>       0.49995366       0.00000000       0.26499837 </v>
    <v>       0.75016566       0.00000000       0.26499705 </v>
    <v>       0.62497616       0.80872782       0.44125040 </v>
    <v>       0.87433055       0.81033073       0.43967270 </v>
    <v>       0.62486804       0.30821655       0.31330254 </v>
    <v>       0.87531281       0.30809786       0.31308993 </v>
    <v>       0.49951346       0.50000000       0.48487600 </v>
    <v>       0.75040443       0.50000000       0.48499898 </v>
    <v>       0.49958760       0.00000000       0.36089798 </v>
    <v>       0.75042740       0.00000000       0.36109984 </v>
    <v>       0.62497616       0.19127218       0.44125040 </v>
    <v>       0.87433055       0.18966927       0.43967270 </v>
    <v>       0.62486804       0.69178345       0.31330254 </v>
    <v>       0.87531281       0.69190214       0.31308993 </v>
    <v>       0.67575982       0.00000000       0.54648253 </v>
    <v>       0.57756451       0.00000000       0.54724656 </v>
   </varray>
  </structure>
  <varray name="forces" >
   <v>      -0.00766905       0.00000000      -0.30962260 </v>
   <v>       0.01387075       0.00000000      -0.30473420 </v>
   <v>      -0.01234575       0.00000000      -0.93743834 </v>
   <v>       0.03312090       0.00000000      -0.94472103 </v>
   <v>      -0.00206963       0.00000000       1.59059688 </v>
   <v>       0.00223663       0.00000000       1.60248531 </v>
   <v>       0.00452798       0.00000000      -0.07788374 </v>
   <v>      -0.02993570       0.00000000      -0.09534498 </v>
   <v>       0.00231552       0.00000000      -0.00672449 </v>
   <v>       0.00307354       0.00000000       0.00797179 </v>
   <v>       0.00117955       0.00000000       0.00189836 </v>
   <v>       0.00759495       0.00000000       0.00657827 </v>
   <v>      -0.00130036       0.00000000      -0.00125232 </v>
   <v>       0.00352083       0.00000000      -0.00095659 </v>
   <v>      -0.00544038       0.00000000       0.01678525 </v>
   <v>       0.00474431       0.00000000      -0.01205200 </v>
   <v>       0.02547067       0.00000000      -0.13413623 </v>
   <v>      -0.02891720       0.00000000      -0.13823644 </v>
   <v>       0.01856950       0.00000000       0.82432318 </v>
   <v>      -0.01892304       0.00000000       0.81530931 </v>
   <v>      -0.05540455      -0.04061958      -0.04278460 </v>
   <v>       0.04606644      -0.03842032      -0.02129314 </v>
   <v>      -0.05384683      -0.07344113      -0.67086195 </v>
   <v>       0.04833319      -0.08248633      -0.67059544 </v>
   <v>      -0.04202614       0.00000000       0.35357006 </v>
   <v>       0.02594122       0.00000000       0.34697597 </v>
   <v>       0.00418335       0.00000000       0.19606014 </v>
   <v>       0.00313617       0.00000000       0.19919105 </v>
   <v>      -0.05540455       0.04061958      -0.04278460 </v>
   <v>       0.04606644       0.03842032      -0.02129314 </v>
   <v>      -0.05384683       0.07344113      -0.67086195 </v>
   <v>       0.04833319       0.08248633      -0.67059544 </v>
   <v>      -0.00957828       0.00000000       0.00350428 </v>
   <v>       0.00668062       0.00000000       0.00241824 </v>
   <v>      -0.00075786       0.00000000       0.00135978 </v>
   <v>       0.00316636       0.00000000       0.00129270 </v>
   <v>       0.00170780       0.00295841      -0.01614708 </v>
   <v>       0.00049914      -0.00021324       0.01384495 </v>
   <v>       0.00090450       0.00181428       0.00321124 </v>
   <v>       0.00525525      -0.00079814       0.01150645 </v>
   <v>       0.00106998       0.00000000       0.00590280 </v>
   <v>      -0.00143625       0.00000000       0.00420550 </v>
   <v>      -0.00638917       0.00000000      -0.01493151 </v>
   <v>       0.00310140       0.00000000      -0.00394960 </v>
   <v>       0.00170780      -0.00295841      -0.01614708 </v>
   <v>       0.00049914       0.00021324       0.01384495 </v>
   <v>       0.00090450      -0.00181428       0.00321124 </v>
   <v>       0.00525525       0.00079814       0.01150645 </v>
   <v>      -0.01559508       0.00000000      -0.00124094 </v>
   <v>       0.01178722       0.00000000      -0.01197176 </v>
   <v>      -0.00933763       0.00000000      -0.29853095 </v>
   <v>       0.00954736       0.00000000      -0.30635405 </v>
   <v>      -0.01215841       0.00000000      -0.95088907 </v>
   <v>      -0.01082386       0.00000000      -0.94422360 </v>
   <v>       0.00518073       0.00000000       1.59508374 </v>
   <v>      -0.00541339       0.00000000       1.60923799 </v>
   <v>       0.02796093       0.00000000      -0.04525581 </v>
   <v>      -0.01981334       0.00000000      -0.04711220 </v>
   <v>       0.00412253       0.00000000       0.00880232 </v>
   <v>      -0.00142855       0.00000000       0.00506325 </v>
   <v>       0.00102933       0.00000000       0.02582442 </v>
   <v>      -0.00648537       0.00000000       0.01312678 </v>
   <v>       0.00251362       0.00000000       0.00457001 </v>
   <v>      -0.00034588       0.00000000       0.00169783 </v>
   <v>       0.01112217       0.00000000       0.06050193 </v>
   <v>      -0.01475665       0.00000000       0.07652670 </v>
   <v>      -0.02887586       0.00000000      -0.08167530 </v>
   <v>       0.02791147       0.00000000      -0.08819398 </v>
   <v>      -0.01146828       0.00000000       0.83388088 </v>
   <v>       0.01241487       0.00000000       0.82531840 </v>
   <v>      -0.05316511      -0.04113195      -0.02262252 </v>
   <v>       0.05986480      -0.04012696      -0.02421182 </v>
   <v>      -0.05333123      -0.08591122      -0.67597362 </v>
   <v>       0.05825846      -0.08281931      -0.67080973 </v>
   <v>       0.03235220       0.00000000       0.43645409 </v>
   <v>      -0.03664312       0.00000000       0.45270182 </v>
   <v>      -0.00478757       0.00000000       0.19304657 </v>
   <v>       0.00302552       0.00000000       0.20003208 </v>
   <v>      -0.05316511       0.04113195      -0.02262252 </v>
   <v>       0.05986480       0.04012696      -0.02421182 </v>
   <v>      -0.05333123       0.08591122      -0.67597362 </v>
   <v>       0.05825846       0.08281931      -0.67080973 </v>
   <v>       0.00895052       0.00000000       0.01945545 </v>
   <v>      -0.00342760       0.00000000       0.00963239 </v>
   <v>      -0.00002523       0.00000000       0.00326176 </v>
   <v>      -0.00221868       0.00000000       0.01274529 </v>
   <v>      -0.00581591      -0.00719157       0.02456745 </v>
   <v>      -0.00475438      -0.00545441       0.01546622 </v>
   <v>       0.00563732       0.00474766       0.01442827 </v>
   <v>      -0.00235762      -0.00067986       0.01177852 </v>
   <v>       0.01763178       0.00000000       0.00293371 </v>
   <v>       0.00552200       0.00000000       0.02204138 </v>
   <v>      -0.00263279       0.00000000       0.02029117 </v>
   <v>       0.00098182       0.00000000       0.03496769 </v>
   <v>      -0.00581591       0.00719157       0.02456745 </v>
   <v>      -0.00475438       0.00545441       0.01546622 </v>
   <v>       0.00563732      -0.00474766       0.01442827 </v>
   <v>      -0.00235762       0.00067986       0.01177852 </v>
   <v>       0.04277833       0.00000000      -0.63344935 </v>
   <v>      -0.03501308       0.00000000      -0.61575181 </v>
  </varray>
  <varray name="stress" >
   <v>     -18.16522129       0.00000000       0.09908953 </v>
   <v>       0.00000000      -7.61843663       0.00000000 </v>
   <v>       0.09908954       0.00000000     -11.59995810 </v>
  </varray>
  <energy>
   <i name="e_fr_energy">   -635.51657689 </i>
   <i name="e_wo_entrp">   -635.46212728 </i>
   <i name="e_0_energy">     -0.10889921 </i>
  </energy>
  <kpoints>
   <generation param="Gamma">
    <v type="int" name="divisions">       3        3        1 </v>
    <v name="usershift">      0.00000000       0.00000000       0.00000000 </v>
    <v name="genvec1">      0.33333333       0.00000000       0.00000000 </v>
    <v name="genvec2">      0.00000000       0.33333333       0.00000000 </v>
    <v name="genvec3">      0.00000000       0.00000000       1.00000000 </v>
    <v name="shift">      0.00000000       0.00000000       0.00000000 </v>
   </generation>
   <varray name="kpointlist" >
    <v>       0.00000000       0.00000000       0.00000000 </v>
    <v>       0.33333333       0.00000000       0.00000000 </v>
    <v>       0.00000000       0.33333333       0.00000000 </v>
    <v>       0.33333333       0.33333333       0.00000000 </v>
   </varray>
   <varray name="weights" >
    <v>       0.11111111 </v>
    <v>       0.22222222 </v>
    <v>       0.22222222 </v>
    <v>       0.44444444 </v>
   </varray>
  </kpoints>
  <time name="totalsc">  285.22  286.17</time>
 </calculation>
 <calculation>
  <scstep>
   <time name="dav">    6.95    6.98</time>
   <time name="total">    7.33    7.36</time>
   <energy>
    <i name="alphaZ">   1826.57435200 </i>
    <i name="ewald"> 225283.65747785 </i>
    <i name="hartreedc">-272257.76305440 </i>
    <i name="XCdc">   1350.76686787 </i>
    <i name="pawpsdc">  62163.98961530 </i>
    <i name="pawaedc"> -61059.72902996 </i>
    <i name="eentropy">     -0.10913097 </i>
    <i name="bandstr">  -5240.95561850 </i>
    <i name="atom">  47298.05697971 </i>
    <i name="e_fr_energy">   -635.51154110 </i>
    <i name="e_wo_entrp">   -635.40241013 </i>
    <i name="e_0_energy">   -635.45697561 </i>
   </energy>
  </scstep>
  <scstep>
   <time name="diag">    1.32    1.32</time>
   <time name="diis">    3.71    3.72</time>
   <time name="orth">    0.29    0.29</time>
   <time name="total">    5.70    5.71</time>
   <energy>
    <i name="e_fr_energy">   -635.53178557 </i>
    <i name="e_wo_entrp">   -635.43045747 </i>
    <i name="e_0_energy">   -635.48112152 </i>
   </energy>
  </scstep>
  <scstep>
   <time name="diag">    1.32    1.32</time>
   <time name="diis">    3.76    3.77</time>
   <time name="orth">    0.29    0.29</time>
   <time name="total">    5.75    5.76</time>
   <energy>
    <i name="e_fr_energy">   -635.50096026 </i>
    <i name="e_wo_entrp">   -635.39159201 </i>
    <i name="e_0_energy">   -635.44627613 </i>
   </energy>
  </scstep>
  <scstep>
   <time name="diag">    1.32    1.32</time>
   <time name="diis">    3.74    3.75</time>
   <time name="orth">    0.29    0.29</time>
   <time name="total">    5.73    5.75</time>
   <energy>
    <i name="e_fr_energy">   -635.51346963 </i>
    <i name="e_wo_entrp">   -635.40501611 </i>
    <i name="e_0_energy">   -635.45924287 </i>
   </energy>
  </scstep>
  <scstep>
   <time name="diag">    1.32    1.33</time>
   <time name="diis">    3.68    3.69</time>
   <time name="orth">    0.29    0.29</time>
   <time name="total">    5.67    5.69</time>
   <energy>
    <i name="e_fr_energy">   -635.51389539 </i>
    <i name="e_wo_entrp">   -635.40586384 </i>
    <i name="e_0_energy">   -635.45987961 </i>
   </energy>
  </scstep>
  <scstep>
   <time name="diag">    1.32    1.32</time>
   <time name="diis">    3.63    3.64</time>
   <time name="orth">    0.29    0.29</time>
   <time name="total">    5.62    5.63</time>
   <energy>
    <i name="e_fr_energy">   -635.51256515 </i>
    <i name="e_wo_entrp">   -635.40354943 </i>
    <i name="e_0_energy">   -635.45805729 </i>
   </energy>
  </scstep>
  <scstep>
   <time name="diag">    1.32    1.33</time>
   <time name="diis">    3.68    3.69</time>
   <time name="orth">    0.29    0.29</time>
   <time name="total">    5.67    5.68</time>
   <energy>
    <i name="e_fr_energy">   -635.51252372 </i>
    <i name="e_wo_entrp">   -635.40375547 </i>
    <i name="e_0_energy">   -635.45813959 </i>
   </energy>
  </scstep>
  <scstep>
   <time name="diag">    1.32    1.32</time>
   <time name="diis">    3.60    3.61</time>
   <time name="orth">    0.29    0.29</time>
   <time name="total">    5.59    5.60</time>
   <energy>
    <i name="e_fr_energy">   -635.51229565 </i>
    <i name="e_wo_entrp">   -635.40319153 </i>
    <i name="e_0_energy">   -635.45774359 </i>
   </energy>
  </scstep>
  <scstep>
   <time name="diag">    1.32    1.32</time>
   <time name="diis">    3.35    3.36</time>
   <time name="orth">    0.29    0.29</time>
   <time name="total">    5.34    5.35</time>
   <energy>
    <i name="e_fr_energy">   -635.51233561 </i>
    <i name="e_wo_entrp">   -635.40318972 </i>
    <i name="e_0_energy">   -635.45776266 </i>
   </energy>
  </scstep>
  <scstep>
   <time name="diag">    1.32    1.32</time>
   <time name="diis">    2.57    2.57</time>
   <time name="orth">    0.29    0.29</time>
   <time name="total">    4.23    4.24</time>
   <energy>
    <i name="alphaZ">   1826.57435200 </i>
    <i name="ewald"> 225283.65747785 </i>
    <i name="hartreedc">-272258.88703736 </i>
    <i name="XCdc">   1350.77159911 </i>
    <i name="pawpsdc">  62162.89446077 </i>
    <i name="pawaedc"> -61058.63825037 </i>
    <i name="eentropy">     -0.10903232 </i>
    <i name="bandstr">  -5239.83287587 </i>
    <i name="atom">  47298.05697971 </i>
    <i name="e_fr_energy">   -635.51232648 </i>
    <i name="e_wo_entrp">   -635.40329417 </i>
    <i name="e_0_energy">   -635.45781033 </i>
   </energy>
  </scstep>
  <structure>
   <crystal>
    <varray name="basis" >
     <v>      12.80853200       0.00000000       0.00000000 </v>
     <v>       0.00000000       6.47024300       0.00000000 </v>
     <v>       0.00000000       0.00000000      25.88097200 </v>
    </varray>
    <i name="volume">   2144.86781344 </i>
    <varray name="rec_basis" >
     <v>       0.07807296       0.00000000       0.00000000 </v>
     <v>       0.00000000       0.15455370       0.00000000 </v>
     <v>       0.00000000       0.00000000       0.03863843 </v>
    </varray>
   </crystal>
   <varray name="positions" >
    <v>       0.12500000       0.50000000       0.18750000 </v>
    <v>       0.37500000       0.50000000       0.18750000 </v>
    <v>       0.12500000       0.00000000       0.06250000 </v>
    <v>       0.37500000       0.00000000       0.06250000 </v>
    <v>       0.00000000       0.50000000       0.06250000 </v>
[...]
       <r>   -13.7719     0.0000   136.0000 </r>
       <r>   -13.6540     0.0000   136.0000 </r>
       <r>   -13.5360     0.0000   136.0000 </r>
       <r>   -13.4180     0.0000   136.0000 </r>
       <r>   -13.3001     0.0000   136.0000 </r>
       <r>   -13.1821     0.0000   136.0000 </r>
       <r>   -13.0641     0.0000   136.0000 </r>
       <r>   -12.9462     0.0000   136.0000 </r>
       <r>   -12.8282     0.0000   136.0000 </r>
       <r>   -12.7102     0.0000   136.0000 </r>
       <r>   -12.5923     0.0000   136.0000 </r>
       <r>   -12.4743     0.0000   136.0000 </r>
       <r>   -12.3563     0.0000   136.0000 </r>
       <r>   -12.2384     0.0000   136.0000 </r>
       <r>   -12.1204     0.0000   136.0000 </r>
       <r>   -12.0024     0.0000   136.0000 </r>
       <r>   -11.8845     0.0000   136.0000 </r>
       <r>   -11.7665     0.0000   136.0000 </r>
       <r>   -11.6486     0.0000   136.0000 </r>
       <r>   -11.5306     0.0000   136.0000 </r>
       <r>   -11.4126     0.0000   136.0000 </r>
       <r>   -11.2947     0.0000   136.0000 </r>
       <r>   -11.1767     0.0000   136.0000 </r>
       <r>   -11.0587     0.0000   136.0000 </r>
       <r>   -10.9408     0.0000   136.0000 </r>
       <r>   -10.8228     0.0000   136.0000 </r>
       <r>   -10.7048     0.0000   136.0000 </r>
       <r>   -10.5869     0.0000   136.0000 </r>
       <r>   -10.4689     0.0000   136.0000 </r>
       <r>   -10.3509     0.0000   136.0000 </r>
       <r>   -10.2330     0.0000   136.0000 </r>
       <r>   -10.1150     0.0000   136.0000 </r>
       <r>    -9.9970     0.0000   136.0000 </r>
       <r>    -9.8791     0.0000   136.0000 </r>
       <r>    -9.7611     0.0000   136.0000 </r>
       <r>    -9.6431     0.0006   136.0001 </r>
       <r>    -9.5252     1.8108   136.2137 </r>
       <r>    -9.4072    13.8076   137.8425 </r>
       <r>    -9.2892     7.0055   138.6689 </r>
       <r>    -9.1713    10.9537   139.9611 </r>
       <r>    -9.0533    15.6576   141.8081 </r>
       <r>    -8.9354    10.1331   143.0035 </r>
       <r>    -8.8174    33.1463   146.9136 </r>
       <r>    -8.6994    16.1013   148.8130 </r>
       <r>    -8.5815    40.3705   153.5753 </r>
       <r>    -8.4635    42.1613   158.5488 </r>
       <r>    -8.3455    32.2244   162.3502 </r>
       <r>    -8.2276    58.4087   169.2404 </r>
       <r>    -8.1096    72.5473   177.7985 </r>
       <r>    -7.9916    58.2009   184.6641 </r>
       <r>    -7.8737    74.7132   193.4777 </r>
       <r>    -7.7557   140.4375   210.0444 </r>
       <r>    -7.6377   118.9849   224.0805 </r>
       <r>    -7.5198    88.2965   234.4964 </r>
       <r>    -7.4018    70.9929   242.8711 </r>
       <r>    -7.2838    61.6272   250.1410 </r>
       <r>    -7.1659    59.5230   257.1626 </r>
       <r>    -7.0479    56.9494   263.8807 </r>
       <r>    -6.9299    50.1748   269.7996 </r>
       <r>    -6.8120    58.4215   276.6913 </r>
       <r>    -6.6940    51.9236   282.8165 </r>
       <r>    -6.5760    40.1370   287.5512 </r>
       <r>    -6.4581    43.8556   292.7247 </r>
       <r>    -6.3401    51.0492   298.7467 </r>
       <r>    -6.2222    65.9637   306.5281 </r>
       <r>    -6.1042    57.0688   313.2602 </r>
       <r>    -5.9862    65.3010   320.9635 </r>
       <r>    -5.8683    67.7836   328.9596 </r>
       <r>    -5.7503    61.8543   336.2563 </r>
       <r>    -5.6323    84.6206   346.2385 </r>
       <r>    -5.5144    91.3449   357.0141 </r>
       <r>    -5.3964    78.0040   366.2158 </r>
       <r>    -5.2784    81.9692   375.8853 </r>
       <r>    -5.1605    74.8766   384.7182 </r>
       <r>    -5.0425    83.9501   394.6214 </r>
       <r>    -4.9245    62.9168   402.0434 </r>
       <r>    -4.8066    69.7215   410.2681 </r>
       <r>    -4.6886    89.9143   420.8748 </r>
       <r>    -4.5706    72.7110   429.4522 </r>
       <r>    -4.4527    53.1218   435.7187 </r>
       <r>    -4.3347    54.3039   442.1247 </r>
       <r>    -4.2167    58.1257   448.9815 </r>
       <r>    -4.0988    64.6608   456.6092 </r>
       <r>    -3.9808    50.7871   462.6003 </r>
       <r>    -3.8628    63.9877   470.1487 </r>
       <r>    -3.7449    73.8952   478.8657 </r>
       <r>    -3.6269    58.0059   485.7084 </r>
       <r>    -3.5090    39.7492   490.3974 </r>
       <r>    -3.3910    48.8944   496.1653 </r>
       <r>    -3.2730    66.1320   503.9665 </r>
       <r>    -3.1551    65.6835   511.7149 </r>
       <r>    -3.0371    68.9701   519.8510 </r>
       <r>    -2.9191    42.7987   524.8997 </r>
       <r>    -2.8012    40.3521   529.6599 </r>
       <r>    -2.6832    37.9198   534.1331 </r>
       <r>    -2.5652    39.5012   538.7929 </r>
       <r>    -2.4473    32.9149   542.6757 </r>
       <r>    -2.3293    41.9288   547.6218 </r>
       <r>    -2.2113    68.8591   555.7448 </r>
       <r>    -2.0934    67.9950   563.7659 </r>
       <r>    -1.9754   102.8313   575.8964 </r>
       <r>    -1.8574   115.8150   589.5585 </r>
       <r>    -1.7395    89.1313   600.0729 </r>
       <r>    -1.6215    95.0184   611.2818 </r>
       <r>    -1.5035    85.2315   621.3361 </r>
       <r>    -1.3856    86.7833   631.5735 </r>
       <r>    -1.2676    63.0321   639.0091 </r>
       <r>    -1.1496    42.1048   643.9760 </r>
       <r>    -1.0317    46.8732   649.5054 </r>
       <r>    -0.9137    61.2393   656.7295 </r>
       <r>    -0.7958    56.8242   663.4328 </r>
       <r>    -0.6778    62.6737   670.8261 </r>
       <r>    -0.5598    60.5468   677.9686 </r>
       <r>    -0.4419    72.0506   686.4680 </r>
       <r>    -0.3239    53.0727   692.7288 </r>
       <r>    -0.2059    78.5777   701.9982 </r>
       <r>    -0.0880    74.7716   710.8187 </r>
       <r>     0.0300    67.9254   718.8315 </r>
       <r>     0.1480    61.0404   726.0321 </r>
       <r>     0.2659    57.7469   732.8442 </r>
       <r>     0.3839    46.7005   738.3533 </r>
       <r>     0.5019    24.3765   741.2289 </r>
       <r>     0.6198    19.9963   743.5877 </r>
       <r>     0.7378    28.9422   747.0019 </r>
       <r>     0.8558    15.9010   748.8777 </r>
       <r>     0.9737    11.2323   750.2027 </r>
       <r>     1.0917    10.5406   751.4461 </r>
       <r>     1.2097    29.1445   754.8842 </r>
       <r>     1.3276    29.7043   758.3882 </r>
       <r>     1.4456    16.2842   760.3092 </r>
       <r>     1.5636    23.3377   763.0622 </r>
       <r>     1.6815    25.3452   766.0521 </r>
       <r>     1.7995    26.1686   769.1391 </r>
       <r>     1.9174    37.6153   773.5764 </r>
       <r>     2.0354    17.4669   775.6368 </r>
       <r>     2.1534    44.4467   780.8800 </r>
       <r>     2.2713    45.7231   786.2737 </r>
       <r>     2.3893    53.9836   792.6419 </r>
       <r>     2.5073    20.3416   795.0415 </r>
       <r>     2.6252    35.0019   799.1705 </r>
       <r>     2.7432    41.8414   804.1064 </r>
       <r>     2.8612    36.9108   808.4606 </r>
       <r>     2.9791    27.3603   811.6881 </r>
       <r>     3.0971    42.3287   816.6815 </r>
       <r>     3.2151    48.6584   822.4215 </r>
       <r>     3.3330    55.6271   828.9835 </r>
       <r>     3.4510    43.7522   834.1448 </r>
       <r>     3.5690    43.6087   839.2891 </r>
       <r>     3.6869    43.8160   844.4578 </r>
       <r>     3.8049    56.3906   851.1100 </r>
       <r>     3.9229    45.6976   856.5007 </r>
       <r>     4.0408    15.2581   858.3006 </r>
       <r>     4.1588    15.7078   860.1536 </r>
       <r>     4.2768    12.3011   861.6047 </r>
       <r>     4.3947     3.3257   861.9970 </r>
       <r>     4.5127     2.4352   862.2843 </r>
       <r>     4.6306     9.8378   863.4448 </r>
       <r>     4.7486     8.6838   864.4692 </r>
       <r>     4.8666     9.0009   865.5310 </r>
       <r>     4.9845     4.3539   866.0446 </r>
       <r>     5.1025     3.8481   866.4985 </r>
       <r>     5.2205    12.4180   867.9634 </r>
       <r>     5.3384    12.3071   869.4152 </r>
       <r>     5.4564     3.0695   869.7773 </r>
       <r>     5.5744     1.3655   869.9384 </r>
       <r>     5.6923    10.9223   871.2268 </r>
       <r>     5.8103    12.9093   872.7497 </r>
       <r>     5.9283    11.1753   874.0680 </r>
       <r>     6.0462     4.4350   874.5912 </r>
       <r>     6.1642    18.5425   876.7785 </r>
       <r>     6.2822     9.9502   877.9523 </r>
       <r>     6.4001     7.6831   878.8587 </r>
       <r>     6.5181     9.5407   879.9841 </r>
       <r>     6.6361     0.1346   880.0000 </r>
       <r>     6.7540     0.0000   880.0000 </r>
       <r>     6.8720     0.0000   880.0000 </r>
       <r>     6.9900     0.0000   880.0000 </r>
       <r>     7.1079     0.0000   880.0000 </r>
       <r>     7.2259     0.0000   880.0000 </r>
       <r>     7.3438     0.0000   880.0000 </r>
       <r>     7.4618     0.0000   880.0000 </r>
       <r>     7.5798     0.0000   880.0000 </r>
       <r>     7.6977     0.0000   880.0000 </r>
       <r>     7.8157     0.0000   880.0000 </r>
       <r>     7.9337     0.0000   880.0000 </r>
       <r>     8.0516     0.0000   880.0000 </r>
      </set>
     </set>
    </array>
   </total>
  </dos>
 </calculation>
 <structure name="finalpos" >
  <crystal>
   <varray name="basis" >
    <v>      12.80853200       0.00000000       0.00000000 </v>
    <v>       0.00000000       6.47024300       0.00000000 </v>
    <v>       0.00000000       0.00000000      25.88097200 </v>
   </varray>
   <i name="volume">   2144.86781344 </i>
   <varray name="rec_basis" >
    <v>       0.07807296       0.00000000       0.00000000 </v>
    <v>       0.00000000       0.15455370       0.00000000 </v>
    <v>       0.00000000       0.00000000       0.03863843 </v>
   </varray>
  </crystal>
  <varray name="positions" >
   <v>       0.12500000       0.50000000       0.18750000 </v>
   <v>       0.37500000       0.50000000       0.18750000 </v>
   <v>       0.12500000       0.00000000       0.06250000 </v>
   <v>       0.37500000       0.00000000       0.06250000 </v>
   <v>       0.00000000       0.50000000       0.06250000 </v>
   <v>       0.25000000       0.50000000       0.06250000 </v>
   <v>       0.00000000       0.00000000       0.18750000 </v>
   <v>       0.25000000       0.00000000       0.18750000 </v>
   <v>       0.12485379       0.50000000       0.43800764 </v>
   <v>       0.37452250       0.50000000       0.43867343 </v>
   <v>       0.12475721       0.00000000       0.31358560 </v>
   <v>       0.37369576       0.00000000       0.31313609 </v>
   <v>       0.99993882       0.50000000       0.31303677 </v>
   <v>       0.24981469       0.50000000       0.31298880 </v>
   <v>       0.99877300       0.00000000       0.44231523 </v>
   <v>       0.25097341       0.00000000       0.44206357 </v>
   <v>       0.00000000       0.50000000       0.13961000 </v>
   <v>       0.25000000       0.50000000       0.13961000 </v>
   <v>       0.00000000       0.00000000       0.01461000 </v>
   <v>       0.25000000       0.00000000       0.01461000 </v>
   <v>       0.12500000       0.80844000       0.18750000 </v>
   <v>       0.37500000       0.80844000       0.18750000 </v>
   <v>       0.12500000       0.30844000       0.06250000 </v>
   <v>       0.37500000       0.30844000       0.06250000 </v>
   <v>       0.00000000       0.50000000       0.23539000 </v>
   <v>       0.25000000       0.50000000       0.23539000 </v>
   <v>       0.00000000       0.00000000       0.11039000 </v>
   <v>       0.25000000       0.00000000       0.11039000 </v>
   <v>       0.12500000       0.19156000       0.18750000 </v>
   <v>       0.37500000       0.19156000       0.18750000 </v>
   <v>       0.12500000       0.69156000       0.06250000 </v>
   <v>       0.37500000       0.69156000       0.06250000 </v>
   <v>       0.99986891       0.50000000       0.38974426 </v>
   <v>       0.24981054       0.50000000       0.38961764 </v>
   <v>       0.00023579       0.00000000       0.26504881 </v>
   <v>       0.24929351       0.00000000       0.26497213 </v>
   <v>       0.12472399       0.80927020       0.43568366 </v>
   <v>       0.37554535       0.81044748       0.43922492 </v>
   <v>       0.12466626       0.30822676       0.31283733 </v>
   <v>       0.37476549       0.30820207       0.31297128 </v>
   <v>       0.00089925       0.50000000       0.48383167 </v>
   <v>       0.24887661       0.50000000       0.48380354 </v>
   <v>       0.99999434       0.00000000       0.36220260 </v>
   <v>       0.24971845       0.00000000       0.36199288 </v>
   <v>       0.12472399       0.19072980       0.43568366 </v>
   <v>       0.37554535       0.18955252       0.43922492 </v>
   <v>       0.12466626       0.69177324       0.31283733 </v>
   <v>       0.37476549       0.69179793       0.31297128 </v>
   <v>       0.24500098       0.00000000       0.51089999 </v>
   <v>       0.00444294       0.00000000       0.51116956 </v>
   <v>       0.62500000       0.50000000       0.18750000 </v>
   <v>       0.87500000       0.50000000       0.18750000 </v>
   <v>       0.62500000       0.00000000       0.06250000 </v>
   <v>       0.87500000       0.00000000       0.06250000 </v>
   <v>       0.50000000       0.50000000       0.06250000 </v>
   <v>       0.75000000       0.50000000       0.06250000 </v>
   <v>       0.50000000       0.00000000       0.18750000 </v>
   <v>       0.75000000       0.00000000       0.18750000 </v>
   <v>       0.62494236       0.50000000       0.43949639 </v>
   <v>       0.87529163       0.50000000       0.43880979 </v>
   <v>       0.62504051       0.00000000       0.31318663 </v>
   <v>       0.87615778       0.00000000       0.31327275 </v>
   <v>       0.49988084       0.50000000       0.31330363 </v>
   <v>       0.75002555       0.50000000       0.31332693 </v>
   <v>       0.50151088       0.00000000       0.43831374 </v>
   <v>       0.74842898       0.00000000       0.43875871 </v>
   <v>       0.50000000       0.50000000       0.13961000 </v>
   <v>       0.75000000       0.50000000       0.13961000 </v>
   <v>       0.50000000       0.00000000       0.01461000 </v>
   <v>       0.75000000       0.00000000       0.01461000 </v>
   <v>       0.62500000       0.80844000       0.18750000 </v>
   <v>       0.87500000       0.80844000       0.18750000 </v>
   <v>       0.62500000       0.30844000       0.06250000 </v>
   <v>       0.87500000       0.30844000       0.06250000 </v>
   <v>       0.50000000       0.50000000       0.23539000 </v>
   <v>       0.75000000       0.50000000       0.23539000 </v>
   <v>       0.50000000       0.00000000       0.11039000 </v>
   <v>       0.75000000       0.00000000       0.11039000 </v>
   <v>       0.62500000       0.19156000       0.18750000 </v>
   <v>       0.87500000       0.19156000       0.18750000 </v>
   <v>       0.62500000       0.69156000       0.06250000 </v>
   <v>       0.87500000       0.69156000       0.06250000 </v>
   <v>       0.49992674       0.50000000       0.39036267 </v>
   <v>       0.75001624       0.50000000       0.39038988 </v>
   <v>       0.49995366       0.00000000       0.26499837 </v>
   <v>       0.75016566       0.00000000       0.26499705 </v>
   <v>       0.62497616       0.80872782       0.44125040 </v>
   <v>       0.87433055       0.81033073       0.43967270 </v>
   <v>       0.62486804       0.30821655       0.31330254 </v>
   <v>       0.87531281       0.30809786       0.31308993 </v>
   <v>       0.49951346       0.50000000       0.48487600 </v>
   <v>       0.75040443       0.50000000       0.48499898 </v>
   <v>       0.49958760       0.00000000       0.36089798 </v>
   <v>       0.75042740       0.00000000       0.36109984 </v>
   <v>       0.62497616       0.19127218       0.44125040 </v>
   <v>       0.87433055       0.18966927       0.43967270 </v>
   <v>       0.62486804       0.69178345       0.31330254 </v>
   <v>       0.87531281       0.69190214       0.31308993 </v>
   <v>       0.67575982       0.00000000       0.54648253 </v>
   <v>       0.57756451       0.00000000       0.54666698 </v>
  </varray>
  <varray name="selective"  type="logical" >
   <v type="logical" >  F  F  F </v>
   <v type="logical" >  F  F  F </v>
   <v type="logical" >  F  F  F </v>
   <v type="logical" >  F  F  F </v>
   <v type="logical" >  F  F  F </v>
   <v type="logical" >  F  F  F </v>
   <v type="logical" >  F  F  F </v>
   <v type="logical" >  F  F  F </v>
   <v type="logical" >  F  F  F </v>
   <v type="logical" >  F  F  F </v>
   <v type="logical" >  F  F  F </v>
   <v type="logical" >  F  F  F </v>
   <v type="logical" >  F  F  F </v>
   <v type="logical" >  F  F  F </v>
   <v type="logical" >  F  F  F </v>
   <v type="logical" >  F  F  F </v>
   <v type="logical" >  F  F  F </v>
   <v type="logical" >  F  F  F </v>
   <v type="logical" >  F  F  F </v>
   <v type="logical" >  F  F  F </v>
   <v type="logical" >  F  F  F </v>
   <v type="logical" >  F  F  F </v>
   <v type="logical" >  F  F  F </v>
   <v type="logical" >  F  F  F </v>
   <v type="logical" >  F  F  F </v>
   <v type="logical" >  F  F  F </v>
   <v type="logical" >  F  F  F </v>
   <v type="logical" >  F  F  F </v>
   <v type="logical" >  F  F  F </v>
   <v type="logical" >  F  F  F </v>
   <v type="logical" >  F  F  F </v>
   <v type="logical" >  F  F  F </v>
   <v type="logical" >  F  F  F </v>
   <v type="logical" >  F  F  F </v>
   <v type="logical" >  F  F  F </v>
   <v type="logical" >  F  F  F </v>
   <v type="logical" >  F  F  F </v>
   <v type="logical" >  F  F  F </v>
   <v type="logical" >  F  F  F </v>
   <v type="logical" >  F  F  F </v>
   <v type="logical" >  F  F  F </v>
   <v type="logical" >  F  F  F </v>
   <v type="logical" >  F  F  F </v>
   <v type="logical" >  F  F  F </v>
   <v type="logical" >  F  F  F </v>
   <v type="logical" >  F  F  F </v>
   <v type="logical" >  F  F  F </v>
   <v type="logical" >  F  F  F </v>
   <v type="logical" >  F  F  F </v>
   <v type="logical" >  F  F  F </v>
   <v type="logical" >  F  F  F </v>
   <v type="logical" >  F  F  F </v>
   <v type="logical" >  F  F  F </v>
   <v type="logical" >  F  F  F </v>
   <v type="logical" >  F  F  F </v>
   <v type="logical" >  F  F  F </v>
   <v type="logical" >  F  F  F </v>
   <v type="logical" >  F  F  F </v>
   <v type="logical" >  F  F  F </v>
   <v type="logical" >  F  F  F </v>
   <v type="logical" >  F  F  F </v>
   <v type="logical" >  F  F  F </v>
   <v type="logical" >  F  F  F </v>
   <v type="logical" >  F  F  F </v>
   <v type="logical" >  T  T  T </v>
   <v type="logical" >  T  T  T </v>
   <v type="logical" >  F  F  F </v>
   <v type="logical" >  F  F  F </v>
   <v type="logical" >  F  F  F </v>
   <v type="logical" >  F  F  F </v>
   <v type="logical" >  F  F  F </v>
   <v type="logical" >  F  F  F </v>
   <v type="logical" >  F  F  F </v>
   <v type="logical" >  F  F  F </v>
   <v type="logical" >  F  F  F </v>
   <v type="logical" >  F  F  F </v>
   <v type="logical" >  F  F  F </v>
   <v type="logical" >  F  F  F </v>
   <v type="logical" >  F  F  F </v>
   <v type="logical" >  F  F  F </v>
   <v type="logical" >  F  F  F </v>
   <v type="logical" >  F  F  F </v>
   <v type="logical" >  F  F  F </v>
   <v type="logical" >  F  F  F </v>
   <v type="logical" >  F  F  F </v>
   <v type="logical" >  F  F  F </v>
   <v type="logical" >  F  F  F </v>
   <v type="logical" >  F  F  F </v>
   <v type="logical" >  F  F  F </v>
   <v type="logical" >  F  F  F </v>
   <v type="logical" >  F  F  F </v>
   <v type="logical" >  F  F  F </v>
   <v type="logical" >  F  F  F </v>
   <v type="logical" >  F  F  F </v>
   <v type="logical" >  F  F  F </v>
   <v type="logical" >  F  F  F </v>
   <v type="logical" >  F  F  F </v>
   <v type="logical" >  F  F  F </v>
   <v type="logical" >  T  T  T </v>
   <v type="logical" >  T  T  T </v>
  </varray>
  <nose>
   <v>      -3.00000000       0.00000000       0.00010000       0.00010000 </v>
  </nose>
 </structure>
</modeling>
