 vasp.5.4.4.18Apr17-6-g9f103f2a35 (build Feb 25 2019 10:51:38) complex          
  
 executed on             LinuxIFC date 2022.11.21  15:41:59
 running on   40 total cores
 each image running on    8 cores
 distrk:  each k-point on    8 cores,    1 groups
 distr:  one band on NCORES_PER_BAND=   2 cores,    4 groups


--------------------------------------------------------------------------------------------------------


 INCAR:
 POTCAR:    PAW_PBE Ir 06Sep2000                  
 POTCAR:    PAW_PBE O 08Apr2002                   
 POTCAR:    PAW_PBE Ir 06Sep2000                  
 POTCAR:    PAW_PBE O 08Apr2002                   
 POTCAR:    PAW_PBE Ir 06Sep2000                  
   VRHFIN =Ir: s1d8                                                             
   LEXCH  = PE                                                                  
   EATOM  =   560.1833 eV,   41.1723 Ry                                         
                                                                                
   TITEL  = PAW_PBE Ir 06Sep2000                                                
   LULTRA =        F    use ultrasoft PP ?                                      
   IUNSCR =        1    unscreen: 0-lin 1-nonlin 2-no                           
   RPACOR =    2.250    partial core radius                                     
   POMASS =  192.220; ZVAL   =    9.000    mass and valenz                      
   RCORE  =    2.600    outmost cutoff radius                                   
   RWIGS  =    2.690; RWIGS  =    1.423    wigner-seitz radius (au A)           
   ENMAX  =  210.864; ENMIN  =  158.148 eV                                      
   RCLOC  =    1.857    cutoff for local pot                                    
   LCOR   =        T    correct aug charges                                     
   LPAW   =        T    paw PP                                                  
   EAUG   =  318.962                                                            
   DEXC   =    0.000                                                            
   RMAX   =    2.667    core radius for proj-oper                               
   RAUG   =    1.300    factor for augmentation sphere                          
   RDEP   =    2.748    radius for radial grids                                 
   RDEPT  =    2.300    core radius for aug-charge                              
                                                                                
   Atomic configuration                                                         
   16 entries                                                                   
     n  l   j            E        occ.                                          
     1  0  0.50    -76100.0449   2.0000                                         
     2  0  0.50    -13308.1683   2.0000                                         
     2  1  1.50    -11558.0021   6.0000                                         
     3  0  0.50     -3110.7274   2.0000                                         
     3  1  1.50     -2599.2109   6.0000                                         
     3  2  2.50     -2037.1515  10.0000                                         
     4  0  0.50      -661.6001   2.0000                                         
     4  1  1.50      -493.8981   6.0000                                         
     4  2  2.50      -288.1909  10.0000                                         
     4  3  3.50       -59.5718  14.0000                                         
     5  0  0.50       -95.3879   2.0000                                         
     5  1  1.50       -52.2747   6.0000                                         
     5  2  2.50        -5.4180   8.0000                                         
     6  0  0.50        -5.5479   1.0000                                         
     6  1  1.50        -6.8029   0.0000                                         
     5  3  2.50        -1.3606   0.0000                                         
   Description                                                                  
     l       E           TYP  RCUT    TYP  RCUT                                 
     2     -5.4179967     23  2.600                                             
     2     -6.7785793     23  2.600                                             
     0     -5.5478636     23  2.600                                             
     0      2.2542272     23  2.600                                             
     1     -2.7211652     23  2.600                                             
     1     20.4087390     23  2.600                                             
  local pseudopotential read in
  partial core-charges read in
  partial kinetic energy density read in
  atomic valenz-charges read in
  non local Contribution for L=           2  read in
    real space projection operators read in
  non local Contribution for L=           2  read in
    real space projection operators read in
  non local Contribution for L=           0  read in
    real space projection operators read in
  non local Contribution for L=           0  read in
    real space projection operators read in
  non local Contribution for L=           1  read in
    real space projection operators read in
  non local Contribution for L=           1  read in
    real space projection operators read in
    PAW grid and wavefunctions read in
 
   number of l-projection  operators is LMAX  =           6
   number of lm-projection operators is LMMAX =          18
 
 POTCAR:    PAW_PBE O 08Apr2002                   
   VRHFIN =O: s2p4                                                              
   LEXCH  = PE                                                                  
   EATOM  =   432.3788 eV,   31.7789 Ry                                         
                                                                                
   TITEL  = PAW_PBE O 08Apr2002                                                 
   LULTRA =        F    use ultrasoft PP ?                                      
   IUNSCR =        1    unscreen: 0-lin 1-nonlin 2-no                           
   RPACOR =    1.200    partial core radius                                     
   POMASS =   16.000; ZVAL   =    6.000    mass and valenz                      
   RCORE  =    1.520    outmost cutoff radius                                   
   RWIGS  =    1.550; RWIGS  =    0.820    wigner-seitz radius (au A)           
   ENMAX  =  400.000; ENMIN  =  300.000 eV                                      
   ICORE  =        2    local potential                                         
   LCOR   =        T    correct aug charges                                     
   LPAW   =        T    paw PP                                                  
   EAUG   =  605.392                                                            
   DEXC   =    0.000                                                            
   RMAX   =    1.553    core radius for proj-oper                               
   RAUG   =    1.300    factor for augmentation sphere                          
   RDEP   =    1.550    radius for radial grids                                 
   RDEPT  =    1.329    core radius for aug-charge                              
                                                                                
   Atomic configuration                                                         
    4 entries                                                                   
     n  l   j            E        occ.                                          
     1  0  0.50      -514.6923   2.0000                                         
     2  0  0.50       -23.9615   2.0000                                         
     2  1  0.50        -9.0305   4.0000                                         
     3  2  1.50        -9.5241   0.0000                                         
   Description                                                                  
     l       E           TYP  RCUT    TYP  RCUT                                 
     0    -23.9615318     23  1.200                                             
     0     -9.5240782     23  1.200                                             
     1     -9.0304911     23  1.520                                             
     1      8.1634956     23  1.520                                             
     2     -9.5240782      7  1.500                                             
  local pseudopotential read in
  partial core-charges read in
  partial kinetic energy density read in
  kinetic energy density of atom read in
  atomic valenz-charges read in
  non local Contribution for L=           0  read in
    real space projection operators read in
  non local Contribution for L=           0  read in
    real space projection operators read in
  non local Contribution for L=           1  read in
    real space projection operators read in
  non local Contribution for L=           1  read in
    real space projection operators read in
    PAW grid and wavefunctions read in
 
   number of l-projection  operators is LMAX  =           4
   number of lm-projection operators is LMMAX =           8
 
 POTCAR:    PAW_PBE Ir 06Sep2000                  
   VRHFIN =Ir: s1d8                                                             
   LEXCH  = PE                                                                  
   EATOM  =   560.1833 eV,   41.1723 Ry                                         
                                                                                
   TITEL  = PAW_PBE Ir 06Sep2000                                                
   LULTRA =        F    use ultrasoft PP ?                                      
   IUNSCR =        1    unscreen: 0-lin 1-nonlin 2-no                           
   RPACOR =    2.250    partial core radius                                     
   POMASS =  192.220; ZVAL   =    9.000    mass and valenz                      
   RCORE  =    2.600    outmost cutoff radius                                   
   RWIGS  =    2.690; RWIGS  =    1.423    wigner-seitz radius (au A)           
   ENMAX  =  210.864; ENMIN  =  158.148 eV                                      
   RCLOC  =    1.857    cutoff for local pot                                    
   LCOR   =        T    correct aug charges                                     
   LPAW   =        T    paw PP                                                  
   EAUG   =  318.962                                                            
   DEXC   =    0.000                                                            
   RMAX   =    2.667    core radius for proj-oper                               
   RAUG   =    1.300    factor for augmentation sphere                          
   RDEP   =    2.748    radius for radial grids                                 
   RDEPT  =    2.300    core radius for aug-charge                              
                                                                                
   Atomic configuration                                                         
   16 entries                                                                   
     n  l   j            E        occ.                                          
     1  0  0.50    -76100.0449   2.0000                                         
     2  0  0.50    -13308.1683   2.0000                                         
     2  1  1.50    -11558.0021   6.0000                                         
     3  0  0.50     -3110.7274   2.0000                                         
     3  1  1.50     -2599.2109   6.0000                                         
     3  2  2.50     -2037.1515  10.0000                                         
     4  0  0.50      -661.6001   2.0000                                         
     4  1  1.50      -493.8981   6.0000                                         
     4  2  2.50      -288.1909  10.0000                                         
     4  3  3.50       -59.5718  14.0000                                         
     5  0  0.50       -95.3879   2.0000                                         
     5  1  1.50       -52.2747   6.0000                                         
     5  2  2.50        -5.4180   8.0000                                         
     6  0  0.50        -5.5479   1.0000                                         
     6  1  1.50        -6.8029   0.0000                                         
     5  3  2.50        -1.3606   0.0000                                         
   Description                                                                  
     l       E           TYP  RCUT    TYP  RCUT                                 
     2     -5.4179967     23  2.600                                             
     2     -6.7785793     23  2.600                                             
     0     -5.5478636     23  2.600                                             
     0      2.2542272     23  2.600                                             
     1     -2.7211652     23  2.600                                             
     1     20.4087390     23  2.600                                             
  local pseudopotential read in
  partial core-charges read in
  partial kinetic energy density read in
  atomic valenz-charges read in
  non local Contribution for L=           2  read in
    real space projection operators read in
  non local Contribution for L=           2  read in
    real space projection operators read in
  non local Contribution for L=           0  read in
    real space projection operators read in
  non local Contribution for L=           0  read in
    real space projection operators read in
  non local Contribution for L=           1  read in
    real space projection operators read in
  non local Contribution for L=           1  read in
    real space projection operators read in
    PAW grid and wavefunctions read in
 
   number of l-projection  operators is LMAX  =           6
   number of lm-projection operators is LMMAX =          18
 
 POTCAR:    PAW_PBE O 08Apr2002                   
   VRHFIN =O: s2p4                                                              
   LEXCH  = PE                                                                  
   EATOM  =   432.3788 eV,   31.7789 Ry                                         
                                                                                
   TITEL  = PAW_PBE O 08Apr2002                                                 
   LULTRA =        F    use ultrasoft PP ?                                      
   IUNSCR =        1    unscreen: 0-lin 1-nonlin 2-no                           
   RPACOR =    1.200    partial core radius                                     
   POMASS =   16.000; ZVAL   =    6.000    mass and valenz                      
   RCORE  =    1.520    outmost cutoff radius                                   
   RWIGS  =    1.550; RWIGS  =    0.820    wigner-seitz radius (au A)           
   ENMAX  =  400.000; ENMIN  =  300.000 eV                                      
   ICORE  =        2    local potential                                         
   LCOR   =        T    correct aug charges                                     
   LPAW   =        T    paw PP                                                  
   EAUG   =  605.392                                                            
   DEXC   =    0.000                                                            
   RMAX   =    1.553    core radius for proj-oper                               
   RAUG   =    1.300    factor for augmentation sphere                          
   RDEP   =    1.550    radius for radial grids                                 
   RDEPT  =    1.329    core radius for aug-charge                              
                                                                                
   Atomic configuration                                                         
    4 entries                                                                   
     n  l   j            E        occ.                                          
     1  0  0.50      -514.6923   2.0000                                         
     2  0  0.50       -23.9615   2.0000                                         
     2  1  0.50        -9.0305   4.0000                                         
     3  2  1.50        -9.5241   0.0000                                         
   Description                                                                  
     l       E           TYP  RCUT    TYP  RCUT                                 
     0    -23.9615318     23  1.200                                             
     0     -9.5240782     23  1.200                                             
     1     -9.0304911     23  1.520                                             
     1      8.1634956     23  1.520                                             
     2     -9.5240782      7  1.500                                             
  local pseudopotential read in
  partial core-charges read in
  partial kinetic energy density read in
  kinetic energy density of atom read in
  atomic valenz-charges read in
  non local Contribution for L=           0  read in
    real space projection operators read in
  non local Contribution for L=           0  read in
    real space projection operators read in
  non local Contribution for L=           1  read in
    real space projection operators read in
  non local Contribution for L=           1  read in
    real space projection operators read in
    PAW grid and wavefunctions read in
 
   number of l-projection  operators is LMAX  =           4
   number of lm-projection operators is LMMAX =           8
 
 Optimization of the real space projectors (new method)

 maximal supplied QI-value         = 14.36
 optimisation between [QCUT,QGAM] = [ 11.35, 22.84] = [ 36.05,146.02] Ry 
 Optimized for a Real-space Cutoff    1.52 Angstroem

   l    n(q)    QCUT    max X(q) W(low)/X(q) W(high)/X(q)  e(spline) 
   2      9    11.346   134.116    0.47E-03    0.13E-03    0.92E-06
   2      9    11.346   130.192    0.47E-03    0.13E-03    0.92E-06
   0     10    11.346    60.310    0.74E-04    0.13E-03    0.69E-06
   0     10    11.346    39.218    0.68E-04    0.12E-03    0.65E-06
   1     10    11.346    18.439    0.15E-03    0.34E-04    0.20E-06
   1     10    11.346    12.760    0.12E-03    0.31E-04    0.16E-06
 Optimization of the real space projectors (new method)

 maximal supplied QI-value         = 24.76
 optimisation between [QCUT,QGAM] = [ 11.39, 22.77] = [ 36.31,145.25] Ry 
 Optimized for a Real-space Cutoff    1.00 Angstroem

   l    n(q)    QCUT    max X(q) W(low)/X(q) W(high)/X(q)  e(spline) 
   0      7    11.387    20.381    0.39E-03    0.13E-02    0.15E-06
   0      7    11.387    15.268    0.42E-03    0.14E-02    0.17E-06
   1      6    11.387     5.964    0.41E-03    0.11E-02    0.17E-06
   1      6    11.387     5.382    0.39E-03    0.87E-03    0.15E-06
 Optimization of the real space projectors (new method)

 maximal supplied QI-value         = 14.36
 optimisation between [QCUT,QGAM] = [ 11.35, 22.84] = [ 36.05,146.02] Ry 
 Optimized for a Real-space Cutoff    1.52 Angstroem

   l    n(q)    QCUT    max X(q) W(low)/X(q) W(high)/X(q)  e(spline) 
   2      9    11.346   134.116    0.47E-03    0.13E-03    0.92E-06
   2      9    11.346   130.192    0.47E-03    0.13E-03    0.92E-06
   0     10    11.346    60.310    0.74E-04    0.13E-03    0.69E-06
   0     10    11.346    39.218    0.68E-04    0.12E-03    0.65E-06
   1     10    11.346    18.439    0.15E-03    0.34E-04    0.20E-06
   1     10    11.346    12.760    0.12E-03    0.31E-04    0.16E-06
 Optimization of the real space projectors (new method)

 maximal supplied QI-value         = 24.76
 optimisation between [QCUT,QGAM] = [ 11.39, 22.77] = [ 36.31,145.25] Ry 
 Optimized for a Real-space Cutoff    1.00 Angstroem

   l    n(q)    QCUT    max X(q) W(low)/X(q) W(high)/X(q)  e(spline) 
   0      7    11.387    20.381    0.39E-03    0.13E-02    0.15E-06
   0      7    11.387    15.268    0.42E-03    0.14E-02    0.17E-06
   1      6    11.387     5.964    0.41E-03    0.11E-02    0.17E-06
   1      6    11.387     5.382    0.39E-03    0.87E-03    0.15E-06

 ----------------------------------------------------------------------------- 
|                                                                             |
|  ADVICE TO THIS USER RUNNING 'VASP/VAMP'   (HEAR YOUR MASTER'S VOICE ...):  |
|                                                                             |
|      You enforced a specific xc-type in the INCAR file,                     |
|      a different type was found on the POTCAR file                          |
|          I HOPE YOU KNOW, WHAT YOU ARE  DOING                               |
|                                                                             |
 ----------------------------------------------------------------------------- 

  PAW_PBE Ir 06Sep2000                  :
 energy of atom  1       EATOM= -560.1833
 kinetic energy error for atom=    0.0018 (will be added to EATOM!!)
  PAW_PBE O 08Apr2002                   :
 energy of atom  2       EATOM= -432.3788
 kinetic energy error for atom=    0.0224 (will be added to EATOM!!)
  PAW_PBE Ir 06Sep2000                  :
 energy of atom  3       EATOM= -560.1833
 kinetic energy error for atom=    0.0018 (will be added to EATOM!!)
  PAW_PBE O 08Apr2002                   :
 energy of atom  4       EATOM= -432.3788
 kinetic energy error for atom=    0.0224 (will be added to EATOM!!)
 
 
 POSCAR: Ir  O Ir  O                             
  positions in cartesian coordinates
  No initial velocities read in
 exchange correlation table for  LEXCH =        9
   RHO(1)=    0.500       N(1)  =     2000
   RHO(2)=  100.500       N(2)  =     4000

 VTST: version 3.2, (02/03/18)

 CHAIN: initializing optimizer
 
 OPT: Using VASP QUASI-newton optimizer
 CHAIN: Read ICHAIN            0
 CHAIN: Running the NEB
 NEB:          SPRING     -5.000000
 NEB:          LCLIMB      T
 NEB:     LTANGENTOLD      F
 NEB:           LDNEB      F
 NEB:        LDNEBORG      F
 NEB:        LNEBCELL      F
 NEB:          EFIRST      0.000000
 NEB:           ELAST      0.000000
 
 POSCAR: Ir  O Ir  O                             
  positions in cartesian coordinates
  No initial velocities read in
 
 POSCAR: Ir  O Ir  O                             
  positions in cartesian coordinates
  No initial velocities read in
 


--------------------------------------------------------------------------------------------------------


 ion  position               nearest neighbor table
   1  0.125  0.500  0.188-  21 2.00  29 2.00  17 2.02  25 2.02  26 2.02  18 2.02   2 3.20  52 3.20

   2  0.375  0.500  0.188-  22 2.00  30 2.00  26 2.02  18 2.02  67 2.02  75 2.02   1 3.20  51 3.20

   3  0.125  0.000  0.062-  23 2.00  31 2.00  19 2.02  27 2.02  28 2.02  20 2.02   4 3.20  54 3.20

   4  0.375  0.000  0.062-  24 2.00  32 2.00  28 2.02  20 2.02  69 2.02  77 2.02   3 3.20  53 3.20

   5  0.000  0.500  0.062-  17 2.00  23 2.02  31 2.02  74 2.02  82 2.02   6 3.20  56 3.20
   6  0.250  0.500  0.062-  18 2.00  23 2.02  24 2.02  31 2.02  32 2.02   5 3.20  55 3.20
   7  0.000  0.000  0.188-  27 2.00  35 2.00  29 2.02  21 2.02  72 2.02  80 2.02   8 3.20  58 3.20

   8  0.250  0.000  0.188-  28 2.00  36 2.00  21 2.02  29 2.02  30 2.02  22 2.02   7 3.20  57 3.20

   9  0.125  0.500  0.438-  42 1.99  41 1.99  37 2.00  45 2.00  33 2.03  34 2.03  10 3.20  60 3.20

  10  0.375  0.500  0.439-  42 1.99  91 1.99  46 2.00  38 2.00  83 2.04  34 2.04  59 3.20   9 3.20

  11  0.125  0.000  0.313-  39 1.99  47 1.99  35 2.03  36 2.03  44 2.03  43 2.03  62 3.19  12 3.19

  12  0.374  0.000  0.313-  40 1.99  48 1.99  93 2.00  36 2.02  44 2.02  85 2.03  11 3.19  61 3.21

  13  0.000  0.500  0.313-  33 1.99  25 2.01  90 2.02  98 2.02  47 2.02  39 2.02  14 3.20  64 3.20

  14  0.250  0.500  0.313-  34 1.99  26 2.01  40 2.03  48 2.03  47 2.03  39 2.03  13 3.20  63 3.20

  15  0.999  0.000  0.442-  50 1.80  88 2.04  96 2.04  45 2.04  37 2.04  43 2.09  16 3.23  66 3.24

  16  0.251  0.000  0.442-  49 1.79  46 2.04  38 2.04  37 2.04  45 2.04  44 2.09  15 3.23  65 3.24

  17  0.000  0.500  0.140-   5 2.00   1 2.02  52 2.02
  18  0.250  0.500  0.140-   6 2.00   2 2.02   1 2.02
  19  0.000  0.000  0.015-   3 2.02  54 2.02
  20  0.250  0.000  0.015-   3 2.02   4 2.02
  21  0.125  0.808  0.188-   1 2.00   7 2.02   8 2.02
  22  0.375  0.808  0.188-   2 2.00   8 2.02  57 2.02
  23  0.125  0.308  0.062-   3 2.00   5 2.02   6 2.02
  24  0.375  0.308  0.062-   4 2.00   6 2.02  55 2.02
  25  0.000  0.500  0.235-  13 2.01   1 2.02  52 2.02
  26  0.250  0.500  0.235-  14 2.01   2 2.02   1 2.02
  27  0.000  0.000  0.110-   7 2.00   3 2.02  54 2.02
  28  0.250  0.000  0.110-   8 2.00   4 2.02   3 2.02
  29  0.125  0.192  0.188-   1 2.00   7 2.02   8 2.02
  30  0.375  0.192  0.188-   2 2.00   8 2.02  57 2.02
  31  0.125  0.692  0.062-   3 2.00   5 2.02   6 2.02
  32  0.375  0.692  0.062-   4 2.00   6 2.02  55 2.02
  33  1.000  0.500  0.390-  13 1.99   9 2.03  60 2.04
  34  0.250  0.500  0.390-  14 1.99   9 2.03  10 2.04
  35  0.001  0.000  0.265-   7 2.00  62 2.02  11 2.03
  36  0.249  0.000  0.265-   8 2.00  12 2.02  11 2.03
  37  0.125  0.809  0.436-   9 2.00  15 2.04  16 2.04
  38  0.377  0.809  0.439-  10 2.00  16 2.04  65 2.04
  39  0.125  0.308  0.313-  11 1.99  13 2.02  14 2.03
  40  0.375  0.308  0.312-  12 1.99  14 2.03  63 2.03
  41  0.000  0.500  0.484-  60 1.99   9 1.99
  42  0.250  0.500  0.484-  10 1.99   9 1.99
  43  1.000  0.000  0.361-  62 2.03  11 2.03  15 2.09
  44  0.250  0.000  0.361-  12 2.02  11 2.03  16 2.09
  45  0.125  0.191  0.436-   9 2.00  15 2.04  16 2.04
  46  0.377  0.191  0.439-  10 2.00  16 2.04  65 2.04
  47  0.125  0.692  0.313-  11 1.99  13 2.02  14 2.03
  48  0.375  0.692  0.312-  12 1.99  14 2.03  63 2.03
  49  0.248  0.000  0.512-  16 1.79
  50  0.002  0.000  0.511-  15 1.80
  51  0.625  0.500  0.188-  71 2.00  79 2.00  67 2.02  75 2.02  76 2.02  68 2.02   2 3.20  52 3.20

  52  0.875  0.500  0.188-  72 2.00  80 2.00  68 2.02  17 2.02  76 2.02  25 2.02   1 3.20  51 3.20

  53  0.625  0.000  0.062-  73 2.00  81 2.00  69 2.02  77 2.02  78 2.02  70 2.02   4 3.20  54 3.20

  54  0.875  0.000  0.062-  74 2.00  82 2.00  70 2.02  19 2.02  78 2.02  27 2.02   3 3.20  53 3.20

  55  0.500  0.500  0.062-  67 2.00  32 2.02  24 2.02  73 2.02  81 2.02  56 3.20   6 3.20
  56  0.750  0.500  0.062-  68 2.00  73 2.02  74 2.02  81 2.02  82 2.02  55 3.20   5 3.20
  57  0.500  0.000  0.188-  77 2.00  85 2.00  71 2.02  22 2.02  79 2.02  30 2.02   8 3.20  58 3.20

  58  0.750  0.000  0.188-  78 2.00  86 2.00  71 2.02  79 2.02  80 2.02  72 2.02   7 3.20  57 3.20

  59  0.625  0.500  0.437-  87 1.98  95 1.98  91 1.98  92 1.99  83 2.03  84 2.03  10 3.20  60 3.20

  60  0.875  0.500  0.439-  41 1.99  92 1.99  88 2.00  96 2.00  84 2.04  33 2.04  59 3.20   9 3.20

  61  0.625  0.000  0.313-  89 1.99  97 1.99  85 2.03  86 2.03  94 2.04  93 2.05  12 3.21  62 3.21

  62  0.876  0.000  0.313-  90 1.99  98 1.99  94 2.01  35 2.02  43 2.03  86 2.03  11 3.19  61 3.21

  63  0.500  0.500  0.313-  83 1.98  75 2.00  40 2.03  48 2.03  89 2.03  97 2.03  14 3.20  64 3.21

  64  0.750  0.500  0.313-  84 1.98  76 2.00  90 2.03  98 2.03  97 2.03  89 2.03  13 3.20  63 3.21

  65  0.504  0.000  0.439- 100 1.93  95 2.01  87 2.01  93 2.04  38 2.04  46 2.04  66 3.10  16 3.24

  66  0.746  0.000  0.439-  99 1.93  95 2.01  87 2.01  96 2.04  88 2.04  94 2.04  65 3.10  15 3.24

  67  0.500  0.500  0.140-  55 2.00  51 2.02   2 2.02
  68  0.750  0.500  0.140-  56 2.00  52 2.02  51 2.02
  69  0.500  0.000  0.015-   4 2.02  53 2.02
  70  0.750  0.000  0.015-  53 2.02  54 2.02
  71  0.625  0.808  0.188-  51 2.00  57 2.02  58 2.02
  72  0.875  0.808  0.188-  52 2.00   7 2.02  58 2.02
  73  0.625  0.308  0.062-  53 2.00  55 2.02  56 2.02
  74  0.875  0.308  0.062-  54 2.00   5 2.02  56 2.02
  75  0.500  0.500  0.235-  63 2.00  51 2.02   2 2.02
  76  0.750  0.500  0.235-  64 2.00  52 2.02  51 2.02
  77  0.500  0.000  0.110-  57 2.00  53 2.02   4 2.02
  78  0.750  0.000  0.110-  58 2.00  54 2.02  53 2.02
  79  0.625  0.192  0.188-  51 2.00  57 2.02  58 2.02
  80  0.875  0.192  0.188-  52 2.00   7 2.02  58 2.02
  81  0.625  0.692  0.062-  53 2.00  55 2.02  56 2.02
  82  0.875  0.692  0.062-  54 2.00   5 2.02  56 2.02
  83  0.499  0.500  0.389-  63 1.98  59 2.03  10 2.04
  84  0.751  0.500  0.389-  64 1.98  59 2.03  60 2.04
  85  0.500  0.000  0.265-  57 2.00  61 2.03  12 2.03
  86  0.750  0.000  0.265-  58 2.00  61 2.03  62 2.03
  87  0.625  0.805  0.431-  59 1.98  66 2.01  65 2.01
  88  0.873  0.809  0.439-  60 2.00  15 2.04  66 2.04
  89  0.625  0.308  0.312-  61 1.99  63 2.03  64 2.03
  90  0.876  0.308  0.312-  62 1.99  13 2.02  64 2.03
  91  0.502  0.500  0.483-  59 1.98  10 1.99
  92  0.748  0.500  0.483-  59 1.99  60 1.99
  93  0.497  0.000  0.361-  12 2.00  65 2.04  61 2.05
  94  0.753  0.000  0.360-  62 2.01  66 2.04  61 2.04
  95  0.625  0.195  0.431-  59 1.98  66 2.01  65 2.01
  96  0.873  0.191  0.439-  60 2.00  15 2.04  66 2.04
  97  0.625  0.692  0.312-  61 1.99  63 2.03  64 2.03
  98  0.876  0.692  0.312-  62 1.99  13 2.02  64 2.03
  99  0.703  0.000  0.511-  66 1.93
 100  0.548  0.000  0.511-  65 1.93
 
  LATTYP: Found a simple orthorhombic cell.
 ALAT       =     6.4702430000
 B/A-ratio  =     1.9796060210
 C/A-ratio  =     4.0000000000
  
  Lattice vectors:
  
 A1 = (   0.0000000000,  -6.4702430000,   0.0000000000)
 A2 = ( -12.8085320000,   0.0000000000,   0.0000000000)
 A3 = (   0.0000000000,   0.0000000000, -25.8809720000)


Analysis of symmetry for initial positions (statically):
=====================================================================
 Subroutine PRICEL returns:
 Original cell was already a primitive cell.
 

 Routine SETGRP: Setting up the symmetry group for a 
 simple orthorhombic supercell.


 Subroutine GETGRP returns: Found  2 space group operations
 (whereof  2 operations were pure point group operations)
 out of a pool of  8 trial point group operations.


The static configuration has the point symmetry C_1h.


Analysis of symmetry for dynamics (positions and initial velocities):
=====================================================================
 Subroutine PRICEL returns:
 Original cell was already a primitive cell.
 

 Routine SETGRP: Setting up the symmetry group for a 
 simple orthorhombic supercell.


 Subroutine GETGRP returns: Found  2 space group operations
 (whereof  2 operations were pure point group operations)
 out of a pool of  8 trial point group operations.


The dynamic configuration has the point symmetry C_1h.


Analysis of constrained symmetry for selective dynamics:
=====================================================================
 Subroutine PRICEL returns:
 Original cell was already a primitive cell.
 

 Routine SETGRP: Setting up the symmetry group for a 
 simple orthorhombic supercell.


 Subroutine GETGRP returns: Found  2 space group operations
 (whereof  2 operations were pure point group operations)
 out of a pool of  8 trial point group operations.


The constrained configuration has the point symmetry C_1h.


Analysis of structural, dynamic, and magnetic symmetry:
=====================================================================
 Subroutine PRICEL returns:
 Original cell was already a primitive cell.
 

 Routine SETGRP: Setting up the symmetry group for a 
 simple orthorhombic supercell.


 Subroutine GETGRP returns: Found  2 space group operations
 (whereof  2 operations were pure point group operations)
 out of a pool of  8 trial point group operations.


The magnetic configuration has the point symmetry C_1h.


 Subroutine INISYM returns: Found  2 space group operations
 (whereof  2 operations are pure point group operations),
 and found     1 'primitive' translations

 
 
 KPOINTS: Automatic mesh                          

Automatic generation of k-mesh.
Space group operators:
 irot       det(A)        alpha          n_x          n_y          n_z        tau_x        tau_y        tau_z
    1     1.000000     0.000001     1.000000     0.000000     0.000000     0.000000     0.000000     0.000000
    2    -1.000000   180.000000     0.000000     1.000000     0.000000     0.000000     0.000000     0.000000
 
 Subroutine IBZKPT returns following result:
 ===========================================
 
 Found      4 irreducible k-points:
 
 Following reciprocal coordinates:
            Coordinates               Weight
  0.000000  0.000000  0.000000      1.000000
  0.333333  0.000000  0.000000      2.000000
  0.000000  0.333333  0.000000      2.000000
  0.333333  0.333333  0.000000      4.000000
 
 Following cartesian coordinates:
            Coordinates               Weight
  0.000000  0.000000  0.000000      1.000000
  0.026024  0.000000  0.000000      2.000000
  0.000000  0.051518  0.000000      2.000000
  0.026024  0.051518  0.000000      4.000000
 


--------------------------------------------------------------------------------------------------------




 Dimension of arrays:
   k-points           NKPTS =      4   k-points in BZ     NKDIM =      4   number of bands    NBANDS=    448
   number of dos      NEDOS =    301   number of ions     NIONS =    100
   non local maximal  LDIM  =      6   non local SUM 2l+1 LMDIM =     18
   total plane-waves  NPLWV = 362880
   max r-space proj   IRMAX =   2532   max aug-charges    IRDMAX=  12432
   dimension x,y,z NGX =    70 NGY =   36 NGZ =  144
   dimension x,y,z NGXF=   140 NGYF=   72 NGZF=  288
   support grid    NGXF=   140 NGYF=   72 NGZF=  288
   ions per type =              16  34  16  34
   NGX,Y,Z   is equivalent  to a cutoff of   9.09,  9.25,  9.25 a.u.
   NGXF,Y,Z  is equivalent  to a cutoff of  18.17, 18.50, 18.50 a.u.

 SYSTEM =  unknown system                          
 POSCAR =  Ir  O Ir  O                             

 Startparameter for this run:
   NWRITE =      2    write-flag & timer
   PREC   = normal    normal or accurate (medium, high low for compatibility)
   ISTART =      0    job   : 0-new  1-cont  2-samecut
   ICHARG =      2    charge: 1-file 2-atom 10-const
   ISPIN  =      2    spin polarized calculation?
   LNONCOLLINEAR =      F non collinear calculations
   LSORBIT =      F    spin-orbit coupling
   INIWAV =      1    electr: 0-lowe 1-rand  2-diag
   LASPH  =      F    aspherical Exc in radial PAW
   METAGGA=      F    non-selfconsistent MetaGGA calc.

 Electronic Relaxation 1
   ENCUT  =  500.0 eV  36.75 Ry    6.06 a.u.  23.35 11.80 47.19*2*pi/ulx,y,z
   ENINI  =  500.0     initial cutoff
   ENAUG  =  605.4 eV  augmentation charge cutoff
   NELM   =     60;   NELMIN=  4; NELMDL= -5     # of ELM steps 
   EDIFF  = 0.1E-04   stopping-criterion for ELM
   LREAL  =      T    real-space projection
   NLSPLINE    = F    spline interpolate recip. space projectors
   LCOMPAT=      F    compatible to vasp.4.4
   GGA_COMPAT  = T    GGA compatible to vasp.4.4-vasp.4.6
   LMAXPAW     = -100 max onsite density
   LMAXMIX     =    2 max onsite mixed and CHGCAR
   VOSKOWN=      0    Vosko Wilk Nusair interpolation
   ROPT   =   -0.00050  -0.00050  -0.00050  -0.00050
 Ionic relaxation
   EDIFFG = -.5E-01   stopping-criterion for IOM
   NSW    =    500    number of steps for IOM
   NBLOCK =      1;   KBLOCK =    500    inner block; outer block 
   IBRION =      1    ionic relax: 0-MD 1-quasi-New 2-CG
   NFREE  =      0    steps in history (QN), initial steepest desc. (CG)
   ISIF   =      2    stress and relaxation
   IWAVPR =     11    prediction:  0-non 1-charg 2-wave 3-comb
   ISYM   =      2    0-nonsym 1-usesym 2-fastsym
   LCORR  =      T    Harris-Foulkes like correction to forces

   POTIM  = 0.5000    time-step for ionic-motion
   TEIN   =    0.0    initial temperature
   TEBEG  =    0.0;   TEEND  =   0.0 temperature during run
   SMASS  =  -3.00    Nose mass-parameter (am)
   estimated Nose-frequenzy (Omega)   =  0.10E-29 period in steps =****** mass=  -0.375E-26a.u.
   SCALEE = 1.0000    scale energy and forces
   NPACO  =    256;   APACO  = 16.0  distance and # of slots for P.C.
   PSTRESS=    0.0 pullay stress

  Mass of Ions in am
   POMASS = 192.22 16.00192.22 16.00
  Ionic Valenz
   ZVAL   =   9.00  6.00  9.00  6.00
  Atomic Wigner-Seitz radii
   RWIGS  =  -1.00 -1.00 -1.00 -1.00
  virtual crystal weights 
   VCA    =   1.00  1.00  1.00  1.00
   NELECT =     696.0000    total number of electrons
   NUPDOWN=      -1.0000    fix difference up-down

 DOS related values:
   EMIN   =  10.00;   EMAX   =-10.00  energy-range for DOS
   EFERMI =   0.00
   ISMEAR =     0;   SIGMA  =   0.05  broadening in eV -4-tet -1-fermi 0-gaus

 Electronic relaxation 2 (details)
   IALGO  =     68    algorithm
   LDIAG  =      T    sub-space diagonalisation (order eigenvalues)
   LSUBROT=      F    optimize rotation matrix (better conditioning)
   TURBO    =      0    0=normal 1=particle mesh
   IRESTART =      0    0=no restart 2=restart with 2 vectors
   NREBOOT  =      0    no. of reboots
   NMIN     =      0    reboot dimension
   EREF     =   0.00    reference energy to select bands
   IMIX   =      4    mixing-type and parameters
     AMIX     =   0.40;   BMIX     =  1.00
     AMIX_MAG =   1.60;   BMIX_MAG =  1.00
     AMIN     =   0.10
     WC   =   100.;   INIMIX=   1;  MIXPRE=   1;  MAXMIX= -45

 Intra band minimization:
   WEIMIN = 0.0010     energy-eigenvalue tresh-hold
   EBREAK =  0.56E-08  absolut break condition
   DEPER  =   0.30     relativ break condition  

   TIME   =   0.40     timestep for ELM

  volume/ion in A,a.u.               =      21.45       144.74
  Fermi-wavevector in a.u.,A,eV,Ry     =   1.124979  2.125902 17.219229  1.265578
  Thomas-Fermi vector in A             =   2.261654
 
 Write flags
   LWAVE        =      F    write WAVECAR
   LDOWNSAMPLE  =      F    k-point downsampling of WAVECAR
   LCHARG       =      F    write CHGCAR
   LVTOT        =      F    write LOCPOT, total local potential
   LVHAR        =      F    write LOCPOT, Hartree potential only
   LELF         =      F    write electronic localiz. function (ELF)
   LORBIT       =      0    0 simple, 1 ext, 2 COOP (PROOUT), +10 PAW based schemes


 Dipole corrections
   LMONO  =      F    monopole corrections only (constant potential shift)
   LDIPOL =      F    correct potential (dipole corrections)
   IDIPOL =      0    1-x, 2-y, 3-z, 4-all directions 
   EPSILON=  1.0000000 bulk dielectric constant

 Exchange correlation treatment:
   GGA     =    RP    GGA type
   LEXCH   =     9    internal setting for exchange type
   VOSKOWN=      0    Vosko Wilk Nusair interpolation
   LHFCALC =     F    Hartree Fock is set to
   LHFONE  =     F    Hartree Fock one center treatment
   AEXX    =    0.0000 exact exchange contribution

 Linear response parameters
   LEPSILON=     F    determine dielectric tensor
   LRPA    =     F    only Hartree local field effects (RPA)
   LNABLA  =     F    use nabla operator in PAW spheres
   LVEL    =     F    velocity operator in full k-point grid
   LINTERFAST=   F  fast interpolation
   KINTER  =     0    interpolate to denser k-point grid
   CSHIFT  =0.1000    complex shift for real part using Kramers Kronig
   OMEGAMAX=  -1.0    maximum frequency
   DEG_THRESHOLD= 0.2000000E-02 threshold for treating states as degnerate
   RTIME   =   -0.100 relaxation time in fs
  (WPLASMAI=    0.000 imaginary part of plasma frequency in eV, 0.658/RTIME)
   DFIELD  = 0.0000000 0.0000000 0.0000000 field for delta impulse in time
 
 Orbital magnetization related:
   ORBITALMAG=     F  switch on orbital magnetization
   LCHIMAG   =     F  perturbation theory with respect to B field
   DQ        =  0.001000  dq finite difference perturbation B field
   LLRAUG    =     F  two centre corrections for induced B field



--------------------------------------------------------------------------------------------------------


 quasi-Newton-method for relaxation of ions
   using selective dynamics as specified on POSCAR
   WARNING: If single coordinates had been selected the selection of coordinates
            is made according to the corresponding   d i r e c t   coordinates!
            Don't support selection of single cartesian coordinates -- sorry ...
  !
 charge density and potential will be updated during run
 spin polarized calculation
 RMM-DIIS sequential band-by-band and
  variant of blocked Davidson during initial phase
 perform sub-space diagonalisation
    before iterative eigenvector-optimisation
 modified Broyden-mixing scheme, WC =      100.0
 initial mixing is a Kerker type mixing with AMIX =  0.4000 and BMIX =      1.0000
 Hartree-type preconditioning will be used
 using additional bands          100
 real space projection scheme for non local part
 use partial core corrections
 calculate Harris-corrections to forces 
   (improved forces if not selfconsistent)
 use gradient corrections 
 use of overlap-Matrix (Vanderbilt PP)
 Gauss-broadening in eV      SIGMA  =   0.05


--------------------------------------------------------------------------------------------------------


  energy-cutoff  :      500.00
  volume of cell :     2144.87
      direct lattice vectors                 reciprocal lattice vectors
    12.808532000  0.000000000  0.000000000     0.078072959  0.000000000  0.000000000
     0.000000000  6.470243000  0.000000000     0.000000000  0.154553701  0.000000000
     0.000000000  0.000000000 25.880972000     0.000000000  0.000000000  0.038638425

  length of vectors
    12.808532000  6.470243000 25.880972000     0.078072959  0.154553701  0.038638425


 
 k-points in units of 2pi/SCALE and weight: Automatic mesh                          
   0.00000000  0.00000000  0.00000000       0.111
   0.02602432  0.00000000  0.00000000       0.222
   0.00000000  0.05151790  0.00000000       0.222
   0.02602432  0.05151790  0.00000000       0.444
 
 k-points in reciprocal lattice and weights: Automatic mesh                          
   0.00000000  0.00000000  0.00000000       0.111
   0.33333333  0.00000000  0.00000000       0.222
   0.00000000  0.33333333  0.00000000       0.222
   0.33333333  0.33333333  0.00000000       0.444
 
 position of ions in fractional coordinates (direct lattice) 
   0.12500000  0.50000000  0.18750000
   0.37500000  0.50000000  0.18750000
   0.12500000  0.00000000  0.06250000
   0.37500000  0.00000000  0.06250000
   0.00000000  0.50000000  0.06250000
   0.25000000  0.50000000  0.06250000
   0.00000000  0.00000000  0.18750000
   0.25000000  0.00000000  0.18750000
   0.12503266  0.50000000  0.43812719
   0.37514534  0.50000000  0.43858812
   0.12495326  0.00000000  0.31316004
   0.37406362  0.00000000  0.31262449
   0.00019208  0.50000000  0.31300616
   0.24985101  0.50000000  0.31301010
   0.99891600  0.00000000  0.44206234
   0.25107410  0.00000000  0.44222796
   0.00000000  0.50000000  0.13961000
   0.25000000  0.50000000  0.13961000
   0.00000000  0.00000000  0.01461000
   0.25000000  0.00000000  0.01461000
   0.12500000  0.80844000  0.18750000
   0.37500000  0.80844000  0.18750000
   0.12500000  0.30844000  0.06250000
   0.37500000  0.30844000  0.06250000
   0.00000000  0.50000000  0.23539000
   0.25000000  0.50000000  0.23539000
   0.00000000  0.00000000  0.11039000
   0.25000000  0.00000000  0.11039000
   0.12500000  0.19156000  0.18750000
   0.37500000  0.19156000  0.18750000
   0.12500000  0.69156000  0.06250000
   0.37500000  0.69156000  0.06250000
   0.99987487  0.50000000  0.38979553
   0.25028815  0.50000000  0.38980418
   0.00058794  0.00000000  0.26476956
   0.24934143  0.00000000  0.26476056
   0.12497321  0.80927683  0.43627481
   0.37719186  0.80869625  0.43920086
   0.12486100  0.30759190  0.31287491
   0.37468055  0.30766605  0.31234607
   0.00018448  0.50000000  0.48382881
   0.24977149  0.50000000  0.48389535
   0.99952885  0.00000000  0.36133144
   0.25038192  0.00000000  0.36130559
   0.12497321  0.19072317  0.43627481
   0.37719186  0.19130375  0.43920086
   0.12486100  0.69240810  0.31287491
   0.37468055  0.69233395  0.31234607
   0.24791941  0.00000000  0.51154348
   0.00235080  0.00000000  0.51140491
   0.62500000  0.50000000  0.18750000
   0.87500000  0.50000000  0.18750000
   0.62500000  0.00000000  0.06250000
   0.87500000  0.00000000  0.06250000
   0.50000000  0.50000000  0.06250000
   0.75000000  0.50000000  0.06250000
   0.50000000  0.00000000  0.18750000
   0.75000000  0.00000000  0.18750000
   0.62497979  0.50000000  0.43658134
   0.87488274  0.50000000  0.43857129
   0.62489702  0.00000000  0.31294873
   0.87588502  0.00000000  0.31256102
   0.49966705  0.50000000  0.31267109
   0.75033080  0.50000000  0.31264757
   0.50382863  0.00000000  0.43923116
   0.74595546  0.00000000  0.43924667
   0.50000000  0.50000000  0.13961000
   0.75000000  0.50000000  0.13961000
   0.50000000  0.00000000  0.01461000
   0.75000000  0.00000000  0.01461000
   0.62500000  0.80844000  0.18750000
   0.87500000  0.80844000  0.18750000
   0.62500000  0.30844000  0.06250000
   0.87500000  0.30844000  0.06250000
   0.50000000  0.50000000  0.23539000
   0.75000000  0.50000000  0.23539000
   0.50000000  0.00000000  0.11039000
   0.75000000  0.00000000  0.11039000
   0.62500000  0.19156000  0.18750000
   0.87500000  0.19156000  0.18750000
   0.62500000  0.69156000  0.06250000
   0.87500000  0.69156000  0.06250000
   0.49875064  0.50000000  0.38908888
   0.75129686  0.50000000  0.38908201
   0.50000401  0.00000000  0.26494256
   0.74981056  0.00000000  0.26479142
   0.62491994  0.80529561  0.43132797
   0.87269740  0.80875194  0.43888659
   0.62480601  0.30799118  0.31241485
   0.87560002  0.30774319  0.31225618
   0.50186209  0.50000000  0.48312231
   0.74816139  0.50000000  0.48314886
   0.49711922  0.00000000  0.36050017
   0.75261698  0.00000000  0.36034675
   0.62491994  0.19470439  0.43132797
   0.87269740  0.19124806  0.43888659
   0.62480601  0.69200882  0.31241485
   0.87560002  0.69225681  0.31225618
   0.70314727  0.00000000  0.51057422
   0.54761710  0.00000000  0.51057533
 
 position of ions in cartesian coordinates  (Angst):
   1.60106650  3.23512150  4.85268225
   4.80319950  3.23512150  4.85268225
   1.60106650  0.00000000  1.61756075
   4.80319950  0.00000000  1.61756075
   0.00000000  3.23512150  1.61756075
   3.20213300  3.23512150  1.61756075
   0.00000000  0.00000000  4.85268225
   3.20213300  0.00000000  4.85268225
   1.60148489  3.23512150 11.33915756
   4.80506109  3.23512150 11.35108675
   1.60046785  0.00000000  8.10488634
   4.79120587  0.00000000  8.09102577
   0.00246020  3.23512150  8.10090363
   3.20022461  3.23512150  8.10100562
  12.79464756  0.00000000 11.44100317
   3.21589066  0.00000000 11.44528956
   0.00000000  3.23512150  3.61324250
   3.20213300  3.23512150  3.61324250
   0.00000000  0.00000000  0.37812100
   3.20213300  0.00000000  0.37812100
   1.60106650  5.23080325  4.85268225
   4.80319950  5.23080325  4.85268225
   1.60106650  1.99568175  1.61756075
   4.80319950  1.99568175  1.61756075
   0.00000000  3.23512150  6.09212200
   3.20213300  3.23512150  6.09212200
   0.00000000  0.00000000  2.85700050
   3.20213300  0.00000000  2.85700050
   1.60106650  1.23943975  4.85268225
   4.80319950  1.23943975  4.85268225
   1.60106650  4.47456125  1.61756075
   4.80319950  4.47456125  1.61756075
  12.80692925  3.23512150 10.08828719
   3.20582381  3.23512150 10.08851116
   0.00753059  0.00000000  6.85249356
   3.19369771  0.00000000  6.85226060
   1.60072340  5.23621772 11.29121622
   4.83127399  5.23246122 11.36694518
   1.59928610  1.99019432  8.09750691
   4.79910785  1.99067409  8.08381994
   0.00236289  3.23512150 12.52195986
   3.19920617  3.23512150 12.52368208
  12.80249728  0.00000000  9.35160894
   3.20702489  0.00000000  9.35093982
   1.60072340  1.23402528 11.29121622
   4.83127399  1.23778178 11.36694518
   1.59928610  4.48004868  8.09750691
   4.79910785  4.47956891  8.08381994
   3.17548375  0.00000000 13.23924256
   0.03011028  0.00000000 13.23565618
   8.00533250  3.23512150  4.85268225
  11.20746550  3.23512150  4.85268225
   8.00533250  0.00000000  1.61756075
  11.20746550  0.00000000  1.61756075
   6.40426600  3.23512150  1.61756075
   9.60639900  3.23512150  1.61756075
   6.40426600  0.00000000  4.85268225
   9.60639900  0.00000000  4.85268225
   8.00507360  3.23512150 11.29914956
  11.20596360  3.23512150 11.35065125
   8.00401349  0.00000000  8.09941720
  11.21880127  0.00000000  8.08938307
   6.40000134  3.23512150  8.09223162
   9.61063609  3.23512150  8.09162304
   6.45330511  0.00000000 11.36772935
   9.55459432  0.00000000 11.36813072
   6.40426600  3.23512150  3.61324250
   9.60639900  3.23512150  3.61324250
   6.40426600  0.00000000  0.37812100
   9.60639900  0.00000000  0.37812100
   8.00533250  5.23080325  4.85268225
  11.20746550  5.23080325  4.85268225
   8.00533250  1.99568175  1.61756075
  11.20746550  1.99568175  1.61756075
   6.40426600  3.23512150  6.09212200
   9.60639900  3.23512150  6.09212200
   6.40426600  0.00000000  2.85700050
   9.60639900  0.00000000  2.85700050
   8.00533250  1.23943975  4.85268225
  11.20746550  1.23943975  4.85268225
   8.00533250  4.47456125  1.61756075
  11.20746550  4.47456125  1.61756075
   6.38826357  3.23512150 10.06999848
   9.62300984  3.23512150 10.06982063
   6.40431738  0.00000000  6.85697101
   9.60397260  0.00000000  6.85305920
   8.00430702  5.21045827 11.16318723
  11.17797255  5.23282157 11.35881156
   8.00284771  1.99277778  8.08559999
  11.21515088  1.99117324  8.08149343
   6.42811658  3.23512150 12.50367501
   9.58284910  3.23512150 12.50436223
   6.36736740  0.00000000  9.33009478
   9.63991863  0.00000000  9.32612426
   8.00430702  1.25978473 11.16318723
  11.17797255  1.23742143 11.35881156
   8.00284771  4.47746522  8.08559999
  11.21515088  4.47906976  8.08149343
   9.00628433  0.00000000 13.21415721
   7.01417111  0.00000000 13.21418571
 


--------------------------------------------------------------------------------------------------------


 k-point  1 :   0.0000 0.0000 0.0000  plane waves:   54455
 k-point  2 :   0.3333 0.0000 0.0000  plane waves:   54459
 k-point  3 :   0.0000 0.3333 0.0000  plane waves:   54468
 k-point  4 :   0.3333 0.3333 0.0000  plane waves:   54434

 maximum and minimum number of plane-waves per node :     27251    27204

 maximum number of plane-waves:     54468
 maximum index in each direction: 
   IXMAX=   23   IYMAX=   11   IZMAX=   47
   IXMIN=  -23   IYMIN=  -12   IZMIN=  -47


 real space projection operators:
  total allocation   :      13824.64 KBytes
  max/ min on nodes  :       6916.16       6908.48


 parallel 3D FFT for wavefunctions:
    minimum data exchange during FFTs selected (reduces bandwidth)
 parallel 3D FFT for charge:
    minimum data exchange during FFTs selected (reduces bandwidth)


 total amount of memory used by VASP MPI-rank0   511742. kBytes
=======================================================================

   base      :      30000. kBytes
   nonlr-proj:      12772. kBytes
   fftplans  :      18109. kBytes
   grid      :      50594. kBytes
   one-center:       1555. kBytes
   wavefun   :     398712. kBytes
 
     INWAV:  cpu time    0.0000: real time    0.0000
 Broyden mixing: mesh for mixing (old mesh)
   NGX = 47   NGY = 23   NGZ = 95
  (NGX  =140   NGY  = 72   NGZ  =288)
  gives a total of 102695 points

 initial charge density was supplied:
 charge density of overlapping atoms calculated
 number of electron     696.0000000 magnetization      60.0000000
 keeping initial charge density in first step


--------------------------------------------------------------------------------------------------------


 Maximum index for non-local projection operator         1221
 Maximum index for augmentation-charges         1840 (set IRDMAX)


--------------------------------------------------------------------------------------------------------


 First call to EWALD:  gamma=   0.137
 Maximum number of real-space cells 3x 5x 2
 Maximum number of reciprocal cells 3x 2x 5

    FEWALD:  cpu time    0.0108: real time    0.0109


--------------------------------------- Iteration      1(   1)  ---------------------------------------


    POTLOK:  cpu time    0.5630: real time    0.5657
    SETDIJ:  cpu time    0.0595: real time    0.0597
     EDDAV:  cpu time   84.0784: real time   84.2943
       DOS:  cpu time    0.0023: real time    0.0023
    --------------------------------------------
      LOOP:  cpu time   84.7033: real time   84.9221

 eigenvalue-minimisations  :  7224
 total energy-change (2. order) : 0.7759572E+04  (-0.3133406E+05)
 number of electron     696.0000000 magnetization      60.0000000
 augmentation part      696.0000000 magnetization      60.0000000

 Free energy of the ion-electron system (eV)
  ---------------------------------------------------
  alpha Z        PSCENC =      1826.57435200
  Ewald energy   TEWEN  =    229981.01796754
  -Hartree energ DENC   =   -276893.25548535
  -exchange      EXHF   =         0.00000000
  -V(xc)+E(xc)   XCENC  =      1311.34962561
  PAW double counting   =     41249.06120504   -40032.83491672
  entropy T*S    EENTRO =        -0.05997683
  eigenvalues    EBANDS =      3019.66189222
  atomic energy  EATOM  =     47298.05697971
  Solvation  Ediel_sol  =         0.00000000
  ---------------------------------------------------
  free energy    TOTEN  =      7759.57164321 eV

  energy without entropy =     7759.63162004  energy(sigma->0) =     7759.60163162


--------------------------------------------------------------------------------------------------------




--------------------------------------- Iteration      1(   2)  ---------------------------------------


     EDDAV:  cpu time   89.8150: real time   90.0306
       DOS:  cpu time    0.0025: real time    0.0025
    --------------------------------------------
      LOOP:  cpu time   89.8175: real time   90.0331

 eigenvalue-minimisations  :  7544
 total energy-change (2. order) :-0.7225731E+04  (-0.6636584E+04)
 number of electron     696.0000000 magnetization      60.0000000
 augmentation part      696.0000000 magnetization      60.0000000

 Free energy of the ion-electron system (eV)
  ---------------------------------------------------
  alpha Z        PSCENC =      1826.57435200
  Ewald energy   TEWEN  =    229981.01796754
  -Hartree energ DENC   =   -276893.25548535
  -exchange      EXHF   =         0.00000000
  -V(xc)+E(xc)   XCENC  =      1311.34962561
  PAW double counting   =     41249.06120504   -40032.83491672
  entropy T*S    EENTRO =        -0.04141043
  eigenvalues    EBANDS =     -4206.08804664
  atomic energy  EATOM  =     47298.05697971
  Solvation  Ediel_sol  =         0.00000000
  ---------------------------------------------------
  free energy    TOTEN  =       533.84027074 eV

  energy without entropy =      533.88168117  energy(sigma->0) =      533.86097596


--------------------------------------------------------------------------------------------------------




--------------------------------------- Iteration      1(   3)  ---------------------------------------


     EDDAV:  cpu time  105.1059: real time  105.3540
       DOS:  cpu time    0.0024: real time    0.0024
    --------------------------------------------
      LOOP:  cpu time  105.1083: real time  105.3564

 eigenvalue-minimisations  :  9096
 total energy-change (2. order) :-0.1237300E+04  (-0.1178724E+04)
 number of electron     696.0000000 magnetization      60.0000000
 augmentation part      696.0000000 magnetization      60.0000000

 Free energy of the ion-electron system (eV)
  ---------------------------------------------------
  alpha Z        PSCENC =      1826.57435200
  Ewald energy   TEWEN  =    229981.01796754
  -Hartree energ DENC   =   -276893.25548535
  -exchange      EXHF   =         0.00000000
  -V(xc)+E(xc)   XCENC  =      1311.34962561
  PAW double counting   =     41249.06120504   -40032.83491672
  entropy T*S    EENTRO =        -0.06562878
  eigenvalues    EBANDS =     -5443.36407104
  atomic energy  EATOM  =     47298.05697971
  Solvation  Ediel_sol  =         0.00000000
  ---------------------------------------------------
  free energy    TOTEN  =      -703.45997200 eV

  energy without entropy =     -703.39434322  energy(sigma->0) =     -703.42715761


--------------------------------------------------------------------------------------------------------




--------------------------------------- Iteration      1(   4)  ---------------------------------------


     EDDAV:  cpu time  105.7628: real time  106.0120
       DOS:  cpu time    0.0024: real time    0.0024
    --------------------------------------------
      LOOP:  cpu time  105.7653: real time  106.0144

 eigenvalue-minimisations  :  9136
 total energy-change (2. order) :-0.7222598E+02  (-0.6986781E+02)
 number of electron     696.0000000 magnetization      60.0000000
 augmentation part      696.0000000 magnetization      60.0000000

 Free energy of the ion-electron system (eV)
  ---------------------------------------------------
  alpha Z        PSCENC =      1826.57435200
  Ewald energy   TEWEN  =    229981.01796754
  -Hartree energ DENC   =   -276893.25548535
  -exchange      EXHF   =         0.00000000
  -V(xc)+E(xc)   XCENC  =      1311.34962561
  PAW double counting   =     41249.06120504   -40032.83491672
  entropy T*S    EENTRO =        -0.06763897
  eigenvalues    EBANDS =     -5515.58803715
  atomic energy  EATOM  =     47298.05697971
  Solvation  Ediel_sol  =         0.00000000
  ---------------------------------------------------
  free energy    TOTEN  =      -775.68594830 eV

  energy without entropy =     -775.61830934  energy(sigma->0) =     -775.65212882


--------------------------------------------------------------------------------------------------------




--------------------------------------- Iteration      1(   5)  ---------------------------------------


     EDDAV:  cpu time  106.3234: real time  106.5753
       DOS:  cpu time    0.0027: real time    0.0027
    CHARGE:  cpu time    4.2359: real time    4.2460
    MIXING:  cpu time    0.0099: real time    0.0100
    --------------------------------------------
      LOOP:  cpu time  110.5720: real time  110.8339

 eigenvalue-minimisations  :  9192
 total energy-change (2. order) :-0.2298137E+01  (-0.2266479E+01)
 number of electron     696.0000531 magnetization      56.0312655
 augmentation part      119.1606403 magnetization      47.1475298

 Broyden mixing:
  rms(total) = 0.17653E+02    rms(broyden)= 0.17652E+02
  rms(prec ) = 0.17906E+02
  weight for this iteration     100.00

 Free energy of the ion-electron system (eV)
  ---------------------------------------------------
  alpha Z        PSCENC =      1826.57435200
  Ewald energy   TEWEN  =    229981.01796754
  -Hartree energ DENC   =   -276893.25548535
  -exchange      EXHF   =         0.00000000
  -V(xc)+E(xc)   XCENC  =      1311.34962561
  PAW double counting   =     41249.06120504   -40032.83491672
  entropy T*S    EENTRO =        -0.06795341
  eigenvalues    EBANDS =     -5517.88585970
  atomic energy  EATOM  =     47298.05697971
  Solvation  Ediel_sol  =         0.00000000
  ---------------------------------------------------
  free energy    TOTEN  =      -777.98408529 eV

  energy without entropy =     -777.91613188  energy(sigma->0) =     -777.95010858


--------------------------------------------------------------------------------------------------------




--------------------------------------- Iteration      1(   6)  ---------------------------------------


    POTLOK:  cpu time    0.5161: real time    0.5174
    SETDIJ:  cpu time    0.0654: real time    0.0655
    EDDIAG:  cpu time   14.7873: real time   14.8221
  RMM-DIIS:  cpu time   46.9388: real time   47.0492
    ORTHCH:  cpu time    2.7066: real time    2.7130
       DOS:  cpu time    0.0025: real time    0.0025
    CHARGE:  cpu time    4.2586: real time    4.2686
    MIXING:  cpu time    0.0125: real time    0.0125
    --------------------------------------------
      LOOP:  cpu time   69.2877: real time   69.4508

 eigenvalue-minimisations  :  7198
 total energy-change (2. order) : 0.8841919E+02  (-0.7578671E+02)
 number of electron     696.0000463 magnetization      53.4739129
 augmentation part      132.2210885 magnetization      44.0150620

 Broyden mixing:
  rms(total) = 0.13827E+02    rms(broyden)= 0.13824E+02
  rms(prec ) = 0.15256E+02
  weight for this iteration     100.00

 eigenvalues of (default mixing * dielectric matrix)
  average eigenvalue GAMMA=   0.7679
  0.7679

 Free energy of the ion-electron system (eV)
  ---------------------------------------------------
  alpha Z        PSCENC =      1826.57435200
  Ewald energy   TEWEN  =    229981.01796754
  -Hartree energ DENC   =   -276981.39784180
  -exchange      EXHF   =         0.00000000
  -V(xc)+E(xc)   XCENC  =      1395.56395952
  PAW double counting   =     49246.63335742   -48096.86949685
  entropy T*S    EENTRO =        -0.07228920
  eigenvalues    EBANDS =     -5359.07188817
  atomic energy  EATOM  =     47298.05697971
  Solvation  Ediel_sol  =         0.00000000
  ---------------------------------------------------
  free energy    TOTEN  =      -689.56489983 eV

  energy without entropy =     -689.49261063  energy(sigma->0) =     -689.52875523


--------------------------------------------------------------------------------------------------------




--------------------------------------- Iteration      1(   7)  ---------------------------------------


    POTLOK:  cpu time    0.5440: real time    0.5453
    SETDIJ:  cpu time    0.0626: real time    0.0627
    EDDIAG:  cpu time   14.6952: real time   14.7298
  RMM-DIIS:  cpu time   49.4058: real time   49.5220
    ORTHCH:  cpu time    2.6982: real time    2.7045
       DOS:  cpu time    0.0025: real time    0.0025
    CHARGE:  cpu time    4.1328: real time    4.1426
    MIXING:  cpu time    0.0119: real time    0.0119
    --------------------------------------------
      LOOP:  cpu time   71.5529: real time   71.7213

 eigenvalue-minimisations  :  7685
 total energy-change (2. order) :-0.4977275E+03  (-0.4380447E+02)
 number of electron     696.0000422 magnetization      52.9343188
 augmentation part      123.8887984 magnetization      42.9859810

 Broyden mixing:
  rms(total) = 0.34419E+02    rms(broyden)= 0.34417E+02
  rms(prec ) = 0.38393E+02
  weight for this iteration     100.00

 eigenvalues of (default mixing * dielectric matrix)
  average eigenvalue GAMMA=   0.4055
  0.7927  0.0183

 Free energy of the ion-electron system (eV)
  ---------------------------------------------------
  alpha Z        PSCENC =      1826.57435200
  Ewald energy   TEWEN  =    229981.01796754
  -Hartree energ DENC   =   -277977.67005457
  -exchange      EXHF   =         0.00000000
  -V(xc)+E(xc)   XCENC  =      1371.44903998
  PAW double counting   =     53378.50474146   -52230.98898225
  entropy T*S    EENTRO =        -0.05617357
  eigenvalues    EBANDS =     -4834.18029344
  atomic energy  EATOM  =     47298.05697971
  Solvation  Ediel_sol  =         0.00000000
  ---------------------------------------------------
  free energy    TOTEN  =     -1187.29242314 eV

  energy without entropy =    -1187.23624958  energy(sigma->0) =    -1187.26433636


--------------------------------------------------------------------------------------------------------




--------------------------------------- Iteration      1(   8)  ---------------------------------------


    POTLOK:  cpu time    0.5856: real time    0.5870
    SETDIJ:  cpu time    0.0644: real time    0.0645
    EDDIAG:  cpu time   14.2391: real time   14.2735
  RMM-DIIS:  cpu time   48.5747: real time   48.6892
    ORTHCH:  cpu time    2.7424: real time    2.7490
       DOS:  cpu time    0.0025: real time    0.0025
    CHARGE:  cpu time    4.1437: real time    4.1535
    MIXING:  cpu time    0.0117: real time    0.0117
    --------------------------------------------
      LOOP:  cpu time   70.3642: real time   70.5310

 eigenvalue-minimisations  :  7543
 total energy-change (2. order) : 0.1790901E+03  (-0.4594331E+01)
 number of electron     696.0000430 magnetization      51.9210902
 augmentation part      123.2629874 magnetization      39.4086145

 Broyden mixing:
  rms(total) = 0.27742E+02    rms(broyden)= 0.27742E+02
  rms(prec ) = 0.31334E+02
  weight for this iteration     100.00

 eigenvalues of (default mixing * dielectric matrix)
  average eigenvalue GAMMA=   0.4245
  0.8289  0.2223  0.2223

 Free energy of the ion-electron system (eV)
  ---------------------------------------------------
  alpha Z        PSCENC =      1826.57435200
  Ewald energy   TEWEN  =    229981.01796754
  -Hartree energ DENC   =   -278037.72265758
  -exchange      EXHF   =         0.00000000
  -V(xc)+E(xc)   XCENC  =      1370.03387467
  PAW double counting   =     54439.77278013   -53292.85408704
  entropy T*S    EENTRO =        -0.07322247
  eigenvalues    EBANDS =     -4593.00831250
  atomic energy  EATOM  =     47298.05697971
  Solvation  Ediel_sol  =         0.00000000
  ---------------------------------------------------
  free energy    TOTEN  =     -1008.20232555 eV

  energy without entropy =    -1008.12910308  energy(sigma->0) =    -1008.16571432


--------------------------------------------------------------------------------------------------------




--------------------------------------- Iteration      1(   9)  ---------------------------------------


    POTLOK:  cpu time    0.4892: real time    0.4904
    SETDIJ:  cpu time    0.0674: real time    0.0675
    EDDIAG:  cpu time   14.5282: real time   14.5625
  RMM-DIIS:  cpu time   46.0551: real time   46.1639
    ORTHCH:  cpu time    2.7494: real time    2.7560
       DOS:  cpu time    0.0028: real time    0.0028
    CHARGE:  cpu time    4.1604: real time    4.1703
    MIXING:  cpu time    0.0148: real time    0.0149
    --------------------------------------------
      LOOP:  cpu time   68.0673: real time   68.2282

 eigenvalue-minimisations  :  7190
 total energy-change (2. order) : 0.1685489E+03  (-0.9012827E+01)
 number of electron     696.0000458 magnetization      49.3361499
 augmentation part      125.6038916 magnetization      43.0408051

 Broyden mixing:
  rms(total) = 0.19569E+02    rms(broyden)= 0.19568E+02
  rms(prec ) = 0.22820E+02
  weight for this iteration     100.00

 eigenvalues of (default mixing * dielectric matrix)
  average eigenvalue GAMMA=   0.5191
  1.2480  0.3565  0.2359  0.2359

 Free energy of the ion-electron system (eV)
  ---------------------------------------------------
  alpha Z        PSCENC =      1826.57435200
  Ewald energy   TEWEN  =    229981.01796754
  -Hartree energ DENC   =   -277154.98454262
  -exchange      EXHF   =         0.00000000
  -V(xc)+E(xc)   XCENC  =      1367.79050993
  PAW double counting   =     55237.38675194   -54097.22141035
  entropy T*S    EENTRO =        -0.04778900
  eigenvalues    EBANDS =     -5298.22626452
  atomic energy  EATOM  =     47298.05697971
  Solvation  Ediel_sol  =         0.00000000
  ---------------------------------------------------
  free energy    TOTEN  =      -839.65344537 eV

  energy without entropy =     -839.60565638  energy(sigma->0) =     -839.62955088


--------------------------------------------------------------------------------------------------------




--------------------------------------- Iteration      1(  10)  ---------------------------------------


    POTLOK:  cpu time    0.5554: real time    0.5567
    SETDIJ:  cpu time    0.0641: real time    0.0643
    EDDIAG:  cpu time   14.5716: real time   14.6060
  RMM-DIIS:  cpu time   46.5337: real time   46.6435
    ORTHCH:  cpu time    2.7603: real time    2.7668
       DOS:  cpu time    0.0025: real time    0.0025
    CHARGE:  cpu time    3.9895: real time    3.9989
    MIXING:  cpu time    0.0179: real time    0.0180
    --------------------------------------------
      LOOP:  cpu time   68.4950: real time   68.6567

 eigenvalue-minimisations  :  7304
 total energy-change (2. order) :-0.1050093E+02  (-0.1271097E+02)
 number of electron     696.0000544 magnetization      48.0089328
 augmentation part      124.1679454 magnetization      41.6851565

 Broyden mixing:
  rms(total) = 0.18724E+02    rms(broyden)= 0.18722E+02
  rms(prec ) = 0.21943E+02
  weight for this iteration     100.00

 eigenvalues of (default mixing * dielectric matrix)
  average eigenvalue GAMMA=   0.4742
  1.4429  0.4043  0.2216  0.2216  0.0806

 Free energy of the ion-electron system (eV)
  ---------------------------------------------------
  alpha Z        PSCENC =      1826.57435200
  Ewald energy   TEWEN  =    229981.01796754
  -Hartree energ DENC   =   -277452.21496106
  -exchange      EXHF   =         0.00000000
  -V(xc)+E(xc)   XCENC  =      1369.22797552
  PAW double counting   =     57675.79135589   -56546.78445542
  entropy T*S    EENTRO =        -0.05118547
  eigenvalues    EBANDS =     -5001.77240452
  atomic energy  EATOM  =     47298.05697971
  Solvation  Ediel_sol  =         0.00000000
  ---------------------------------------------------
  free energy    TOTEN  =      -850.15437581 eV

  energy without entropy =     -850.10319034  energy(sigma->0) =     -850.12878307


--------------------------------------------------------------------------------------------------------




--------------------------------------- Iteration      1(  11)  ---------------------------------------


    POTLOK:  cpu time    0.5325: real time    0.5338
    SETDIJ:  cpu time    0.0648: real time    0.0650
    EDDIAG:  cpu time   14.2488: real time   14.2824
  RMM-DIIS:  cpu time   47.0914: real time   47.2022
    ORTHCH:  cpu time    2.7701: real time    2.7766
       DOS:  cpu time    0.0024: real time    0.0024
    CHARGE:  cpu time    3.9746: real time    3.9840
    MIXING:  cpu time    0.0180: real time    0.0181
    --------------------------------------------
      LOOP:  cpu time   68.7026: real time   68.8644

 eigenvalue-minimisations  :  7462
 total energy-change (2. order) : 0.8535575E+02  (-0.1278400E+01)
 number of electron     696.0000542 magnetization      47.1273270
 augmentation part      123.0489023 magnetization      40.6701575

 Broyden mixing:
  rms(total) = 0.15562E+02    rms(broyden)= 0.15561E+02
  rms(prec ) = 0.18233E+02
  weight for this iteration     100.00

 eigenvalues of (default mixing * dielectric matrix)
  average eigenvalue GAMMA=   0.4653
  1.4085  0.4266  0.2377  0.2377  0.2947  0.1869

 Free energy of the ion-electron system (eV)
  ---------------------------------------------------
  alpha Z        PSCENC =      1826.57435200
  Ewald energy   TEWEN  =    229981.01796754
  -Hartree energ DENC   =   -277376.54664136
  -exchange      EXHF   =         0.00000000
  -V(xc)+E(xc)   XCENC  =      1370.52707291
  PAW double counting   =     59404.50428101   -58282.18387749
  entropy T*S    EENTRO =        -0.03560398
  eigenvalues    EBANDS =     -4986.71315550
  atomic energy  EATOM  =     47298.05697971
  Solvation  Ediel_sol  =         0.00000000
  ---------------------------------------------------
  free energy    TOTEN  =      -764.79862516 eV

  energy without entropy =     -764.76302118  energy(sigma->0) =     -764.78082317


--------------------------------------------------------------------------------------------------------




--------------------------------------- Iteration      1(  12)  ---------------------------------------


    POTLOK:  cpu time    0.5609: real time    0.5633
    SETDIJ:  cpu time    0.0634: real time    0.0635
    EDDIAG:  cpu time   14.1070: real time   14.1409
  RMM-DIIS:  cpu time   45.4647: real time   45.5717
    ORTHCH:  cpu time    2.8329: real time    2.8407
       DOS:  cpu time    0.0024: real time    0.0024
    CHARGE:  cpu time    4.0223: real time    4.0318
    MIXING:  cpu time    0.0213: real time    0.0213
    --------------------------------------------
      LOOP:  cpu time   67.0748: real time   67.2355

 eigenvalue-minimisations  :  7184
 total energy-change (2. order) : 0.4536240E+02  (-0.1408578E+01)
 number of electron     696.0000533 magnetization      43.6242141
 augmentation part      124.8601973 magnetization      37.5014854

 Broyden mixing:
  rms(total) = 0.14225E+02    rms(broyden)= 0.14225E+02
  rms(prec ) = 0.17363E+02
  weight for this iteration     100.00

 eigenvalues of (default mixing * dielectric matrix)
  average eigenvalue GAMMA=   0.5261
  1.4390  0.5883  0.4687  0.4687  0.2803  0.2803  0.1575

 Free energy of the ion-electron system (eV)
  ---------------------------------------------------
  alpha Z        PSCENC =      1826.57435200
  Ewald energy   TEWEN  =    229981.01796754
  -Hartree energ DENC   =   -277364.90462964
  -exchange      EXHF   =         0.00000000
  -V(xc)+E(xc)   XCENC  =      1374.99627213
  PAW double counting   =     59602.88067347   -58484.23602649
  entropy T*S    EENTRO =        -0.03251437
  eigenvalues    EBANDS =     -4953.78930134
  atomic energy  EATOM  =     47298.05697971
  Solvation  Ediel_sol  =         0.00000000
  ---------------------------------------------------
  free energy    TOTEN  =      -719.43622700 eV

  energy without entropy =     -719.40371263  energy(sigma->0) =     -719.41996981


--------------------------------------------------------------------------------------------------------




--------------------------------------- Iteration      1(  13)  ---------------------------------------


    POTLOK:  cpu time    0.5166: real time    0.5179
    SETDIJ:  cpu time    0.0599: real time    0.0601
    EDDIAG:  cpu time   14.3683: real time   14.4021
  RMM-DIIS:  cpu time   45.5964: real time   45.7037
    ORTHCH:  cpu time    2.7825: real time    2.7891
       DOS:  cpu time    0.0027: real time    0.0027
    CHARGE:  cpu time    4.0542: real time    4.0638
    MIXING:  cpu time    0.0207: real time    0.0208
    --------------------------------------------
      LOOP:  cpu time   67.4014: real time   67.5602

 eigenvalue-minimisations  :  7174
 total energy-change (2. order) : 0.9201055E+02  (-0.4168059E+01)
 number of electron     696.0000521 magnetization      42.6183696
 augmentation part      125.1780820 magnetization      34.7275798

 Broyden mixing:
  rms(total) = 0.63761E+01    rms(broyden)= 0.63736E+01
  rms(prec ) = 0.71717E+01
  weight for this iteration     100.00

 eigenvalues of (default mixing * dielectric matrix)
  average eigenvalue GAMMA=   0.5177
  1.5265  0.6312  0.6312  0.2850  0.2850  0.3125  0.3125  0.1574

 Free energy of the ion-electron system (eV)
  ---------------------------------------------------
  alpha Z        PSCENC =      1826.57435200
  Ewald energy   TEWEN  =    229981.01796754
  -Hartree energ DENC   =   -277143.85757839
  -exchange      EXHF   =         0.00000000
  -V(xc)+E(xc)   XCENC  =      1376.39789597
  PAW double counting   =     61298.68869514   -60186.67670698
  entropy T*S    EENTRO =        -0.08380178
  eigenvalues    EBANDS =     -5077.54348334
  atomic energy  EATOM  =     47298.05697971
  Solvation  Ediel_sol  =         0.00000000
  ---------------------------------------------------
  free energy    TOTEN  =      -627.42568013 eV

  energy without entropy =     -627.34187835  energy(sigma->0) =     -627.38377924


--------------------------------------------------------------------------------------------------------




--------------------------------------- Iteration      1(  14)  ---------------------------------------


    POTLOK:  cpu time    0.5743: real time    0.5757
    SETDIJ:  cpu time    0.0670: real time    0.0671
    EDDIAG:  cpu time   14.1159: real time   14.1492
  RMM-DIIS:  cpu time   46.1581: real time   46.2668
    ORTHCH:  cpu time    2.7479: real time    2.7544
       DOS:  cpu time    0.0026: real time    0.0027
    CHARGE:  cpu time    4.1648: real time    4.1747
    MIXING:  cpu time    0.0233: real time    0.0233
    --------------------------------------------
      LOOP:  cpu time   67.8539: real time   68.0139

 eigenvalue-minimisations  :  7203
 total energy-change (2. order) : 0.1641588E+02  (-0.7629482E+00)
 number of electron     696.0000496 magnetization      42.1161640
 augmentation part      125.4827892 magnetization      34.9430506

 Broyden mixing:
  rms(total) = 0.39844E+01    rms(broyden)= 0.39833E+01
  rms(prec ) = 0.41411E+01
  weight for this iteration     100.00

 eigenvalues of (default mixing * dielectric matrix)
  average eigenvalue GAMMA=   0.4760
  1.4937  0.5763  0.5763  0.2819  0.2819  0.2922  0.2922  0.3315  0.1576

 Free energy of the ion-electron system (eV)
  ---------------------------------------------------
  alpha Z        PSCENC =      1826.57435200
  Ewald energy   TEWEN  =    229981.01796754
  -Hartree energ DENC   =   -277105.01093734
  -exchange      EXHF   =         0.00000000
  -V(xc)+E(xc)   XCENC  =      1375.31673228
  PAW double counting   =     61702.00137023   -60593.55289742
  entropy T*S    EENTRO =        -0.06030895
  eigenvalues    EBANDS =     -5095.35305976
  atomic energy  EATOM  =     47298.05697971
  Solvation  Ediel_sol  =         0.00000000
  ---------------------------------------------------
  free energy    TOTEN  =      -611.00980171 eV

  energy without entropy =     -610.94949276  energy(sigma->0) =     -610.97964723


--------------------------------------------------------------------------------------------------------




--------------------------------------- Iteration      1(  15)  ---------------------------------------


    POTLOK:  cpu time    0.5732: real time    0.5746
    SETDIJ:  cpu time    0.0622: real time    0.0623
    EDDIAG:  cpu time   14.3007: real time   14.3345
  RMM-DIIS:  cpu time   47.1018: real time   47.2129
    ORTHCH:  cpu time    2.8171: real time    2.8237
       DOS:  cpu time    0.0027: real time    0.0027
    CHARGE:  cpu time    4.0667: real time    4.0763
    MIXING:  cpu time    0.0255: real time    0.0255
    --------------------------------------------
      LOOP:  cpu time   68.9499: real time   69.1126

 eigenvalue-minimisations  :  7443
 total energy-change (2. order) :-0.4567258E+00  (-0.2138731E+00)
 number of electron     696.0000497 magnetization      41.6140627
 augmentation part      125.3571902 magnetization      33.1874534

 Broyden mixing:
  rms(total) = 0.41216E+01    rms(broyden)= 0.41214E+01
  rms(prec ) = 0.43177E+01
  weight for this iteration     100.00

 eigenvalues of (default mixing * dielectric matrix)
  average eigenvalue GAMMA=   0.4558
  1.5547  0.5781  0.4110  0.4110  0.3135  0.3135  0.2964  0.2964  0.1567  0.2274

 Free energy of the ion-electron system (eV)
  ---------------------------------------------------
  alpha Z        PSCENC =      1826.57435200
  Ewald energy   TEWEN  =    229981.01796754
  -Hartree energ DENC   =   -277048.29307874
  -exchange      EXHF   =         0.00000000
  -V(xc)+E(xc)   XCENC  =      1373.53399985
  PAW double counting   =     61714.01882343   -60605.84851405
  entropy T*S    EENTRO =        -0.07294855
  eigenvalues    EBANDS =     -5150.45410868
  atomic energy  EATOM  =     47298.05697971
  Solvation  Ediel_sol  =         0.00000000
  ---------------------------------------------------
  free energy    TOTEN  =      -611.46652750 eV

  energy without entropy =     -611.39357895  energy(sigma->0) =     -611.43005322


--------------------------------------------------------------------------------------------------------




--------------------------------------- Iteration      1(  16)  ---------------------------------------


    POTLOK:  cpu time    0.5482: real time    0.5495
[...]
   -.207E+01 0.338E+02 0.604E+03   0.205E+01 -.354E+02 -.604E+03   0.643E-01 0.161E+01 -.353E-01   0.656E-02 0.287E-02 -.137E+00
   -.120E-02 -.358E+01 0.167E+04   0.955E-02 0.172E+01 -.167E+04   -.541E-01 0.181E+01 -.486E+00   -.762E-02 -.371E-02 -.714E-01
   -.451E+00 -.359E+01 0.167E+04   0.444E+00 0.172E+01 -.167E+04   0.603E-01 0.179E+01 -.476E+00   -.231E-02 -.270E-02 -.717E-01
   0.281E+01 -.236E-12 0.171E+03   -.274E+01 0.775E-13 -.168E+03   -.368E-01 0.000E+00 -.240E+01   -.234E-01 0.883E-13 -.106E+00
   -.289E+01 -.141E-11 0.170E+03   0.287E+01 0.284E-12 -.167E+03   0.799E-02 0.000E+00 -.241E+01   -.857E-02 -.359E-12 -.114E+00
   0.578E+00 -.620E-13 0.121E+04   -.550E+00 0.892E-14 -.121E+04   -.340E-01 0.000E+00 0.242E+00   -.828E-02 0.340E-12 -.140E+00
   -.585E+00 0.255E-12 0.121E+04   0.572E+00 -.231E-13 -.121E+04   0.396E-01 0.000E+00 0.234E+00   -.802E-02 0.571E-12 -.148E+00
   -.269E-01 -.337E+02 0.606E+03   0.433E-01 0.353E+02 -.606E+03   -.530E-01 -.160E+01 -.270E-01   -.179E-01 -.897E-02 -.129E+00
   -.207E+01 -.338E+02 0.604E+03   0.205E+01 0.354E+02 -.604E+03   0.643E-01 -.161E+01 -.353E-01   0.656E-02 -.287E-02 -.137E+00
   -.120E-02 0.358E+01 0.167E+04   0.955E-02 -.172E+01 -.167E+04   -.541E-01 -.181E+01 -.486E+00   -.762E-02 0.371E-02 -.714E-01
   -.451E+00 0.359E+01 0.167E+04   0.444E+00 -.172E+01 -.167E+04   0.603E-01 -.179E+01 -.476E+00   -.231E-02 0.270E-02 -.717E-01
   0.235E+02 -.859E-12 -.107E+04   -.240E+02 0.123E-12 0.107E+04   0.565E+00 0.000E+00 -.106E+01   -.494E-01 -.716E-12 0.484E-01
   -.244E+02 -.253E-11 -.107E+04   0.250E+02 0.347E-12 0.107E+04   -.640E+00 0.000E+00 -.977E+00   -.168E-01 -.116E-11 0.216E-01
   0.326E+01 -.355E-13 -.128E+02   -.348E+01 -.116E-12 0.110E+02   0.234E+00 0.000E+00 0.188E+01   -.108E-01 -.113E-12 -.734E-01
   -.319E+01 0.251E-12 -.135E+02   0.340E+01 -.194E-11 0.119E+02   -.173E+00 0.000E+00 0.167E+01   -.319E-01 0.787E-12 -.857E-01
   -.225E+00 0.589E+02 -.139E+04   0.247E+00 -.611E+02 0.138E+04   0.202E-01 0.235E+01 0.112E+02   -.316E-01 -.440E-01 0.346E-01
   -.116E+02 0.335E+02 -.154E+04   0.114E+02 -.356E+02 0.154E+04   0.228E+00 0.208E+01 -.546E+00   0.282E-01 -.201E-01 0.358E-01
   -.114E+01 0.310E+02 -.437E+03   0.127E+01 -.325E+02 0.436E+03   -.103E+00 0.160E+01 0.403E+00   -.270E-01 -.199E-01 -.483E-01
   -.737E+01 0.321E+02 -.452E+03   0.725E+01 -.337E+02 0.452E+03   0.111E+00 0.165E+01 0.393E+00   0.130E-01 0.428E-02 -.505E-01
   0.136E+02 0.358E-12 -.199E+04   -.131E+02 0.729E-13 0.201E+04   -.465E+00 0.000E+00 -.294E+02   -.569E-01 -.651E-12 0.328E-01
   -.140E+02 -.194E-11 -.198E+04   0.137E+02 0.123E-12 0.201E+04   0.373E+00 0.000E+00 -.294E+02   -.119E-01 -.331E-12 0.603E-01
   0.221E+02 0.134E-12 -.890E+03   -.210E+02 -.146E-12 0.897E+03   -.102E+01 0.000E+00 -.668E+01   -.194E-01 0.554E-12 -.406E-01
   -.232E+02 -.638E-13 -.889E+03   0.223E+02 -.196E-11 0.896E+03   0.904E+00 0.000E+00 -.649E+01   -.260E-01 0.157E-11 -.327E-01
   -.225E+00 -.589E+02 -.139E+04   0.247E+00 0.611E+02 0.138E+04   0.202E-01 -.235E+01 0.112E+02   -.316E-01 0.440E-01 0.346E-01
   -.116E+02 -.335E+02 -.154E+04   0.114E+02 0.356E+02 0.154E+04   0.228E+00 -.208E+01 -.546E+00   0.282E-01 0.201E-01 0.358E-01
   -.114E+01 -.310E+02 -.437E+03   0.127E+01 0.325E+02 0.436E+03   -.103E+00 -.160E+01 0.403E+00   -.270E-01 0.199E-01 -.483E-01
   -.737E+01 -.321E+02 -.452E+03   0.725E+01 0.337E+02 0.452E+03   0.111E+00 -.165E+01 0.393E+00   0.130E-01 -.428E-02 -.505E-01
   -.695E+02 0.320E-12 -.205E+04   0.657E+02 -.590E-13 0.208E+04   0.429E+01 0.000E+00 -.316E+02   -.220E-01 0.383E-12 0.956E-01
   0.691E+02 -.883E-13 -.205E+04   -.652E+02 -.432E-13 0.208E+04   -.443E+01 0.000E+00 -.315E+02   -.195E-01 0.390E-12 0.968E-01
 -----------------------------------------------------------------------------------------------
   0.447E+00 0.862E-10 0.176E+03   0.125E-11 0.115E-13 -.682E-11   -.629E+00 0.444E-15 -.171E+03   -.993E-02 0.260E-13 -.555E+01
 
 
 POSITION                                       TOTAL-FORCE (eV/Angst)
 -----------------------------------------------------------------------------------
      1.60107      3.23512      4.85268        -0.006883      0.000000     -0.315903
      4.80320      3.23512      4.85268         0.022344      0.000000     -0.320722
      1.60107      0.00000      1.61756        -0.010012      0.000000     -0.955129
      4.80320      0.00000      1.61756        -0.001344      0.000000     -0.951390
      0.00000      3.23512      1.61756         0.002971      0.000000      1.572374
      3.20213      3.23512      1.61756         0.001544      0.000000      1.585084
      0.00000      0.00000      4.85268         0.058054      0.000000     -0.059456
      3.20213      0.00000      4.85268        -0.070699      0.000000     -0.072563
      1.60062      3.23512     11.34110        -0.003360      0.000000      0.004464
      4.80828      3.23512     11.35494        -0.001895      0.000000     -0.008421
      1.59972     -0.00000      8.10958        -0.003978      0.000000     -0.000786
      4.79497     -0.00000      8.09388         0.010488      0.000000     -0.001195
      0.00121      3.23512      8.10371        -0.004829      0.000000      0.004291
      3.20031      3.23512      8.10355         0.000742      0.000000     -0.000314
     12.79650     -0.00000     11.44885         0.027601      0.000000     -0.016535
      3.20949     -0.00000     11.44952        -0.034958      0.000000      0.003327
      0.00000      3.23512      3.61324        -0.002730      0.000000     -0.099877
      3.20213      3.23512      3.61324         0.004821      0.000000     -0.105847
      0.00000      0.00000      0.37812        -0.011665      0.000000      0.831768
      3.20213      0.00000      0.37812         0.016241      0.000000      0.822253
      1.60107      5.23080      4.85268        -0.052214     -0.035011     -0.046580
      4.80320      5.23080      4.85268         0.051015     -0.022822     -0.031183
      1.60107      1.99568      1.61756        -0.051566     -0.085447     -0.671541
      4.80320      1.99568      1.61756         0.057465     -0.075955     -0.673985
      0.00000      3.23512      6.09212         0.030078      0.000000      0.376084
      3.20213      3.23512      6.09212        -0.028911      0.000000      0.380715
      0.00000      0.00000      2.85700        -0.015818      0.000000      0.210581
      3.20213      0.00000      2.85700         0.025067      0.000000      0.213591
      1.60107      1.23944      4.85268        -0.052214      0.035011     -0.046580
      4.80320      1.23944      4.85268         0.051015      0.022822     -0.031183
      1.60107      4.47456      1.61756        -0.051566      0.085447     -0.671541
      4.80320      4.47456      1.61756         0.057465      0.075955     -0.673985
     12.80280      3.23512     10.09306        -0.006918      0.000000     -0.001254
      3.20880      3.23512     10.09030         0.001296      0.000000      0.009282
      0.00464     -0.00000      6.85688        -0.006120      0.000000      0.008605
      3.19424     -0.00000      6.85524        -0.000367      0.000000      0.009705
      1.59790      5.23651     11.29186        -0.008919      0.001316      0.007907
      4.83695      5.23943     11.38747        -0.011028      0.019933     -0.029793
      1.59861      1.99063      8.10048        -0.002412      0.000689      0.010561
      4.80019      1.99120      8.08614        -0.000654      0.002296      0.004800
      0.00248      3.23512     12.52626        -0.006523      0.000000      0.008787
      3.19984      3.23512     12.52792        -0.003106      0.000000      0.005655
     12.79860     -0.00000      9.35757         0.001033      0.000000      0.027325
      3.20929     -0.00000      9.35842        -0.001434      0.000000      0.012182
      1.59790      1.23374     11.29186        -0.008919     -0.001316      0.007907
      4.83695      1.23082     11.38747        -0.011028     -0.019933     -0.029793
      1.59861      4.47962      8.10048        -0.002412     -0.000689      0.010561
      4.80019      4.47904      8.08614        -0.000654     -0.002296      0.004800
      3.16720     -0.00000     13.24673         0.010772      0.000000     -0.004990
      0.03697     -0.00000     13.24427         0.009711      0.000000      0.017139
      8.00533      3.23512      4.85268        -0.007016      0.000000     -0.329501
     11.20747      3.23512      4.85268         0.003710      0.000000     -0.316848
      8.00533      0.00000      1.61756        -0.009647      0.000000     -0.945020
     11.20747      0.00000      1.61756         0.025890      0.000000     -0.951638
      6.40427      3.23512      1.61756         0.007118      0.000000      1.590100
      9.60640      3.23512      1.61756        -0.003922      0.000000      1.601257
      6.40427      0.00000      4.85268         0.044932      0.000000     -0.089334
      9.60640      0.00000      4.85268        -0.052583      0.000000     -0.107402
      8.00325      3.23512     11.29254        -0.000268      0.000000      0.010816
     11.19992      3.23512     11.35701        -0.006727      0.000000     -0.009185
      8.00291     -0.00000      8.10575        -0.000468      0.000000     -0.011467
     11.21337     -0.00000      8.09320        -0.014715      0.000000     -0.001415
      6.39937      3.23512      8.09072         0.001924      0.000000     -0.007112
      9.60916      3.23512      8.09121        -0.002256      0.000000      0.000522
      6.45244     -0.00000     11.41095        -0.089435      0.000000      0.033186
      9.55417     -0.00000     11.40600         0.092922      0.000000      0.073965
      6.40427      3.23512      3.61324         0.004564      0.000000     -0.127128
      9.60640      3.23512      3.61324        -0.001539      0.000000     -0.131824
      6.40427      0.00000      0.37812         0.016728      0.000000      0.833262
      9.60640      0.00000      0.37812        -0.011951      0.000000      0.823743
      8.00533      5.23080      4.85268        -0.052490     -0.013807     -0.038915
     11.20747      5.23080      4.85268         0.058576     -0.022707     -0.032430
      8.00533      1.99568      1.61756        -0.051468     -0.059237     -0.675620
     11.20747      1.99568      1.61756         0.053166     -0.075913     -0.673750
      6.40427      3.23512      6.09212         0.005757      0.000000      0.209712
      9.60640      3.23512      6.09212        -0.011728      0.000000      0.221625
      6.40427      0.00000      2.85700        -0.012519      0.000000      0.189516
      9.60640      0.00000      2.85700         0.020342      0.000000      0.191573
      8.00533      1.23944      4.85268        -0.052490      0.013807     -0.038915
     11.20747      1.23944      4.85268         0.058576      0.022707     -0.032430
      8.00533      4.47456      1.61756        -0.051468      0.059237     -0.675620
     11.20747      4.47456      1.61756         0.053166      0.075913     -0.673750
      6.38596      3.23512     10.06486        -0.005593      0.000000      0.013263
      9.62080      3.23512     10.06748        -0.013813      0.000000     -0.003340
      6.40441     -0.00000      6.85738        -0.003296      0.000000      0.015432
      9.60354     -0.00000      6.85505         0.002450      0.000000     -0.004292
      8.00242      5.21388     11.08855         0.012060      0.017792     -0.024665
     11.17018      5.23978     11.39207         0.014666      0.018144     -0.040480
      8.00175      1.99306      8.08087        -0.004401      0.006330     -0.010029
     11.21273      1.99198      8.08446         0.000343      0.002065      0.001425
      6.43534      3.23512     12.49964        -0.010788      0.000000     -0.008328
      9.56895      3.23512     12.50307        -0.001575      0.000000      0.000135
      6.36705     -0.00000      9.33695         0.034490      0.000000      0.018926
      9.63747     -0.00000      9.33574        -0.041278      0.000000      0.004659
      8.00242      1.25636     11.08855         0.012060     -0.017792     -0.024665
     11.17018      1.23046     11.39207         0.014666     -0.018144     -0.040480
      8.00175      4.47718      8.08087        -0.004401     -0.006330     -0.010029
     11.21273      4.47827      8.08446         0.000343     -0.002065      0.001425
      9.01903     -0.00000     13.14499         0.537172      0.000000     -0.063836
      6.99904     -0.00000     13.14683        -0.522372      0.000000     -0.064294
 -----------------------------------------------------------------------------------
    total drift:                               -0.192124      0.000000      0.119160


--------------------------------------------------------------------------------------------------------



  FREE ENERGIE OF THE ION-ELECTRON SYSTEM (eV)
  ---------------------------------------------------
  free  energy   TOTEN  =      -637.30398197 eV

  energy  without entropy=     -637.23542372  energy(sigma->0) =     -637.26970285
 
 d Force = 0.2104788E-03[ 0.614E-04, 0.360E-03]  d Energy = 0.2248164E-03-0.143E-04
 d Force =-0.4875483E+01[-0.487E+01,-0.488E+01]  d Ewald  =-0.4875482E+01-0.126E-05


--------------------------------------------------------------------------------------------------------


    POTLOK:  cpu time    0.4390: real time    0.4400


--------------------------------------------------------------------------------------------------------


 NEB: the previous image is higher in energy: F
 NEB: the next image is higher in energy    : T
 NEB: only next energy greater

 NEB: Tangent
 ----------------------------------------------
      0.00000      0.00000      0.00000
      0.00000      0.00000      0.00000
      0.00000      0.00000      0.00000
      0.00000      0.00000      0.00000
      0.00000      0.00000      0.00000
      0.00000      0.00000      0.00000
      0.00000      0.00000      0.00000
      0.00000      0.00000      0.00000
     -0.00063      0.00000      0.00277
     -0.00621      0.00000      0.01692
      0.00126      0.00000     -0.00068
     -0.01522      0.00000     -0.01351
      0.00236      0.00000      0.00166
     -0.00368      0.00000     -0.00006
     -0.03925      0.00000      0.01135
      0.03216      0.00000      0.01246
      0.00000      0.00000      0.00000
      0.00000      0.00000      0.00000
      0.00000      0.00000      0.00000
      0.00000      0.00000      0.00000
      0.00000      0.00000      0.00000
      0.00000      0.00000      0.00000
      0.00000      0.00000      0.00000
      0.00000      0.00000      0.00000
      0.00000      0.00000      0.00000
      0.00000      0.00000      0.00000
      0.00000      0.00000      0.00000
      0.00000      0.00000      0.00000
      0.00000      0.00000      0.00000
      0.00000      0.00000      0.00000
      0.00000      0.00000      0.00000
      0.00000      0.00000      0.00000
      0.00292      0.00000     -0.00100
     -0.00508      0.00000      0.00039
      0.01647      0.00000     -0.01143
     -0.00982      0.00000     -0.00629
     -0.00170      0.00327     -0.00242
      0.01867     -0.01722      0.05875
      0.00061     -0.00124      0.00223
     -0.00818     -0.00181     -0.01260
      0.00025      0.00000      0.00398
     -0.00287      0.00000      0.00699
     -0.00174      0.00000      0.00091
      0.00171      0.00000      0.00243
     -0.00170     -0.00327     -0.00242
      0.01867      0.01722      0.05875
      0.00061      0.00124      0.00223
     -0.00818      0.00181     -0.01260
     -0.01613      0.00000      0.00416
      0.02384      0.00000      0.00533
      0.00000      0.00000      0.00000
      0.00000      0.00000      0.00000
      0.00000      0.00000      0.00000
      0.00000      0.00000      0.00000
      0.00000      0.00000      0.00000
      0.00000      0.00000      0.00000
      0.00000      0.00000      0.00000
      0.00000      0.00000      0.00000
      0.00016      0.00000     -0.03257
      0.00505      0.00000      0.01251
     -0.00060      0.00000     -0.00481
      0.01440      0.00000     -0.01531
     -0.00459      0.00000     -0.00006
      0.00377      0.00000     -0.00033
      0.09496      0.00000     -0.09140
     -0.10322      0.00000     -0.08953
      0.00000      0.00000      0.00000
      0.00000      0.00000      0.00000
      0.00000      0.00000      0.00000
      0.00000      0.00000      0.00000
      0.00000      0.00000      0.00000
      0.00000      0.00000      0.00000
      0.00000      0.00000      0.00000
      0.00000      0.00000      0.00000
      0.00000      0.00000      0.00000
      0.00000      0.00000      0.00000
      0.00000      0.00000      0.00000
      0.00000      0.00000      0.00000
      0.00000      0.00000      0.00000
      0.00000      0.00000      0.00000
      0.00000      0.00000      0.00000
      0.00000      0.00000      0.00000
     -0.01620      0.00000      0.00277
      0.02483      0.00000     -0.00189
      0.00090      0.00000     -0.00019
     -0.00066      0.00000     -0.00292
     -0.00221     -0.02505     -0.00252
     -0.02393     -0.01629      0.04244
      0.00019      0.00062      0.00726
      0.00564     -0.00069     -0.00594
      0.00247      0.00000      0.00198
     -0.00200      0.00000     -0.00181
     -0.05674      0.00000     -0.02608
      0.05042      0.00000     -0.03508
     -0.00221      0.02505     -0.00252
     -0.02393      0.01629      0.04244
      0.00019     -0.00062      0.00726
      0.00564      0.00069     -0.00594
     -0.69248      0.00000      0.05897
      0.66724      0.00000      0.06894

 NEB: forces: par spring, perp REAL, dneb     0.010512    0.107731    0.000000
 NEB: distance to prev, next image, angle between     0.232581    0.234684  161.751487
 NEB: projections on to tangent (spring, REAL)     0.010512   -0.775077

 stress matrix after NEB project (eV)
    -25.00179      0.00000     -0.04158
      0.00000     -6.82035      0.00000
     -0.04158      0.00000     -8.37044
  FORCES: max atom, RMS     0.041369    0.010824
  FORCE total and by dimension    0.108243    0.038617
  Stress total and by dimension   27.233699   25.001789
 Quasi-Newton relaxation of ions (Broydens 2nd method)
  g(Force)  = 0.232E-02   g(Stress)= 0.000E+00

 retain information from N= 10 steps
 eigenvalues of (default step * inverse Hessian matrix)
  average eigenvalue of G=   2.3254
 eigenvalue spectrum of G is  7.6994  7.6994  1.8815  1.8815  0.8975  0.8975  0.5983  0.5983  0.5504  0.5504


--------------------------------------------------------------------------------------------------------


  
 reached required accuracy - stopping structural energy minimisation
     LOOP+:  cpu time  466.1395: real time  467.2761
    4ORBIT:  cpu time    0.0000: real time    0.0000

 total amount of memory used by VASP MPI-rank0   511742. kBytes
=======================================================================

   base      :      30000. kBytes
   nonlr-proj:      12772. kBytes
   fftplans  :      18109. kBytes
   grid      :      50594. kBytes
   one-center:       1555. kBytes
   wavefun   :     398712. kBytes
 
  
  
 General timing and accounting informations for this job:
 ========================================================
  
                  Total CPU time used (sec):    17128.137
                            User time (sec):    16363.089
                          System time (sec):      765.049
                         Elapsed time (sec):    17169.961
  
                   Maximum memory used (kb):      632864.
                   Average memory used (kb):           0.
  
                          Minor page faults:      3968499
                          Major page faults:          167
                 Voluntary context switches:         4265
