   94   94  500    2
  0.2281774E+02  0.1280853E-08  0.6470243E-09  0.2588097E-08  0.5000000E-15
  1.000000000000000E-004
  CAR 
 unknown system                          
    654      4    420
 
  0.0000000E+00  0.0000000E+00  0.0000000E+00  0.1111111E+00
    1      -21.363790    -21.358357   1.000000   1.000000
    2      -21.087993    -21.081634   1.000000   1.000000
    3      -20.910283    -20.904812   1.000000   1.000000
    4      -20.908729    -20.900409   1.000000   1.000000
    5      -20.884446    -20.882705   1.000000   1.000000
    6      -20.728862    -20.722208   1.000000   1.000000
    7      -20.694054    -20.687473   1.000000   1.000000
    8      -20.673156    -20.664921   1.000000   1.000000
    9      -20.551448    -20.544267   1.000000   1.000000
   10      -20.524741    -20.520931   1.000000   1.000000
   11      -20.495281    -20.490209   1.000000   1.000000
   12      -20.444422    -20.432442   1.000000   1.000000
   13      -20.408667    -20.400999   1.000000   1.000000
   14      -20.384600    -20.376187   1.000000   1.000000
   15      -20.319048    -20.300382   1.000000   1.000000
   16      -20.284513    -20.276090   1.000000   1.000000
   17      -20.202865    -20.201419   1.000000   1.000000
   18      -20.178009    -20.170331   1.000000   1.000000
   19      -20.166682    -20.158776   1.000000   1.000000
   20      -20.149341    -20.144244   1.000000   1.000000
   21      -20.118209    -20.114627   1.000000   1.000000
   22      -20.080964    -20.078625   1.000000   1.000000
   23      -20.055091    -20.047104   1.000000   1.000000
   24      -20.035665    -20.037636   1.000000   1.000000
   25      -19.991491    -19.990476   1.000000   1.000000
   26      -19.978256    -19.956444   1.000000   1.000000
   27      -19.961085    -19.955196   1.000000   1.000000
   28      -19.949368    -19.944404   1.000000   1.000000
   29      -19.923220    -19.918174   1.000000   1.000000
   30      -19.922996    -19.909295   1.000000   1.000000
   31      -19.922137    -19.899257   1.000000   1.000000
   32      -19.899576    -19.892204   1.000000   1.000000
   33      -19.822405    -19.817786   1.000000   1.000000
   34      -19.785142    -19.783764   1.000000   1.000000
   35      -19.775053    -19.773280   1.000000   1.000000
   36      -19.743645    -19.739617   1.000000   1.000000
   37      -19.731973    -19.729564   1.000000   1.000000
   38      -19.730163    -19.720876   1.000000   1.000000
   39      -19.725494    -19.713817   1.000000   1.000000
   40      -19.719945    -19.706766   1.000000   1.000000
   41      -19.702956    -19.698959   1.000000   1.000000
   42      -19.695183    -19.691240   1.000000   1.000000
   43      -19.676717    -19.672015   1.000000   1.000000
   44      -19.622425    -19.613070   1.000000   1.000000
   45      -19.612794    -19.598297   1.000000   1.000000
   46      -19.552033    -19.550874   1.000000   1.000000
   47      -19.500892    -19.496945   1.000000   1.000000
   48      -19.484807    -19.488506   1.000000   1.000000
   49      -19.464975    -19.461515   1.000000   1.000000
   50      -19.343258    -19.328744   1.000000   1.000000
   51      -19.219342    -19.216199   1.000000   1.000000
   52      -19.149371    -19.134565   1.000000   1.000000
   53      -19.044972    -19.035737   1.000000   1.000000
   54      -18.844128    -18.848314   1.000000   1.000000
   55      -18.802488    -18.805882   1.000000   1.000000
   56      -18.460466    -18.304199   1.000000   1.000000
   57      -18.453212    -18.302513   1.000000   1.000000
   58      -18.303191    -18.289439   1.000000   1.000000
   59      -18.302962    -18.248766   1.000000   1.000000
   60      -18.247267    -18.239883   1.000000   1.000000
   61      -18.223315    -18.216284   1.000000   1.000000
   62      -18.222680    -18.204381   1.000000   1.000000
   63      -18.218886    -18.178383   1.000000   1.000000
   64      -17.941906    -17.948927   1.000000   1.000000
   65       -9.868694     -9.866641   1.000000   1.000000
   66       -9.850041     -9.848219   1.000000   1.000000
   67       -9.790379     -9.786150   1.000000   1.000000
   68       -9.431121     -9.420600   1.000000   1.000000
   69       -9.291385     -9.282155   1.000000   1.000000
   70       -9.262253     -9.259734   1.000000   1.000000
   71       -9.247543     -9.240000   1.000000   1.000000
   72       -9.240503     -9.231757   1.000000   1.000000
   73       -9.233758     -9.230701   1.000000   1.000000
   74       -9.199940     -9.198116   1.000000   1.000000
   75       -9.170515     -9.166296   1.000000   1.000000
   76       -9.170271     -9.166194   1.000000   1.000000
   77       -8.865925     -8.857580   1.000000   1.000000
   78       -8.836207     -8.824181   1.000000   1.000000
   79       -8.791161     -8.789013   1.000000   1.000000
   80       -8.744669     -8.743201   1.000000   1.000000
   81       -8.737965     -8.733203   1.000000   1.000000
   82       -8.633928     -8.628025   1.000000   1.000000
   83       -8.472766     -8.470812   1.000000   1.000000
   84       -8.342701     -8.340164   1.000000   1.000000
   85       -8.332668     -8.330708   1.000000   1.000000
   86       -8.306096     -8.303151   1.000000   1.000000
   87       -8.278506     -8.274129   1.000000   1.000000
   88       -8.268037     -8.267073   1.000000   1.000000
   89       -8.266007     -8.252901   1.000000   1.000000
   90       -8.249319     -8.234964   1.000000   1.000000
   91       -8.225186     -8.213802   1.000000   1.000000
   92       -8.210509     -8.209041   1.000000   1.000000
   93       -8.194829     -8.189097   1.000000   1.000000
   94       -8.162608     -8.157195   1.000000   1.000000
   95       -8.157534     -8.151769   1.000000   1.000000
   96       -8.155373     -8.151417   1.000000   1.000000
   97       -8.153446     -8.149690   1.000000   1.000000
   98       -8.133158     -8.118030   1.000000   1.000000
   99       -8.112042     -8.104169   1.000000   1.000000
  100       -8.073611     -8.043274   1.000000   1.000000
  101       -8.033609     -8.030365   1.000000   1.000000
  102       -8.016122     -8.011613   1.000000   1.000000
  103       -7.986599     -7.970160   1.000000   1.000000
  104       -7.972980     -7.957023   1.000000   1.000000
  105       -7.904606     -7.892031   1.000000   1.000000
  106       -7.866528     -7.857154   1.000000   1.000000
  107       -7.860374     -7.852806   1.000000   1.000000
  108       -7.842779     -7.839207   1.000000   1.000000
  109       -7.818792     -7.814452   1.000000   1.000000
  110       -7.809519     -7.805124   1.000000   1.000000
  111       -7.779765     -7.773739   1.000000   1.000000
  112       -7.740902     -7.731624   1.000000   1.000000
  113       -7.721694     -7.715278   1.000000   1.000000
  114       -7.631317     -7.626090   1.000000   1.000000
  115       -7.625355     -7.619798   1.000000   1.000000
  116       -7.609345     -7.595648   1.000000   1.000000
  117       -7.574876     -7.571112   1.000000   1.000000
  118       -7.570701     -7.567544   1.000000   1.000000
  119       -7.545139     -7.539964   1.000000   1.000000
  120       -7.498001     -7.484197   1.000000   1.000000
  121       -7.442259     -7.428935   1.000000   1.000000
  122       -7.426348     -7.418358   1.000000   1.000000
  123       -7.369410     -7.360900   1.000000   1.000000
  124       -7.309813     -7.306043   1.000000   1.000000
  125       -7.289970     -7.279996   1.000000   1.000000
  126       -7.249312     -7.235178   1.000000   1.000000
  127       -7.199253     -7.189399   1.000000   1.000000
  128       -7.139476     -7.137211   1.000000   1.000000
  129       -7.087224     -7.074968   1.000000   1.000000
  130       -7.075017     -7.062986   1.000000   1.000000
  131       -7.037596     -7.036336   1.000000   1.000000
  132       -7.021863     -7.014123   1.000000   1.000000
  133       -6.894621     -6.891252   1.000000   1.000000
  134       -6.838455     -6.834269   1.000000   1.000000
  135       -6.823237     -6.811734   1.000000   1.000000
  136       -6.679870     -6.674213   1.000000   1.000000
  137       -6.636418     -6.619149   1.000000   1.000000
  138       -6.630349     -6.616416   1.000000   1.000000
  139       -6.627171     -6.611937   1.000000   1.000000
  140       -6.531244     -6.521955   1.000000   1.000000
  141       -6.494382     -6.490893   1.000000   1.000000
  142       -6.483715     -6.481395   1.000000   1.000000
  143       -6.471791     -6.465177   1.000000   1.000000
  144       -6.468954     -6.462475   1.000000   1.000000
  145       -6.439429     -6.433202   1.000000   1.000000
  146       -6.397828     -6.395236   1.000000   1.000000
  147       -6.301669     -6.277479   1.000000   1.000000
  148       -6.289110     -6.258625   1.000000   1.000000
  149       -6.264288     -6.257066   1.000000   1.000000
  150       -6.218156     -6.201870   1.000000   1.000000
  151       -6.207033     -6.193137   1.000000   1.000000
  152       -6.178202     -6.174579   1.000000   1.000000
  153       -6.130842     -6.130595   1.000000   1.000000
  154       -6.118713     -6.118905   1.000000   1.000000
  155       -6.100129     -6.096185   1.000000   1.000000
  156       -6.035173     -6.029180   1.000000   1.000000
  157       -6.030897     -6.016984   1.000000   1.000000
  158       -6.019629     -5.998033   1.000000   1.000000
  159       -6.016799     -5.995490   1.000000   1.000000
  160       -5.958961     -5.952933   1.000000   1.000000
  161       -5.930178     -5.908504   1.000000   1.000000
  162       -5.919609     -5.904609   1.000000   1.000000
  163       -5.870540     -5.854269   1.000000   1.000000
  164       -5.811359     -5.797295   1.000000   1.000000
  165       -5.745808     -5.725147   1.000000   1.000000
  166       -5.682995     -5.680342   1.000000   1.000000
  167       -5.611815     -5.599209   1.000000   1.000000
  168       -5.602779     -5.589930   1.000000   1.000000
  169       -5.546235     -5.541378   1.000000   1.000000
  170       -5.545616     -5.540879   1.000000   1.000000
  171       -5.509362     -5.497864   1.000000   1.000000
  172       -5.502061     -5.494330   1.000000   1.000000
  173       -5.467399     -5.456354   1.000000   1.000000
  174       -5.457685     -5.446294   1.000000   1.000000
  175       -5.370061     -5.353951   1.000000   1.000000
  176       -5.296582     -5.285463   1.000000   1.000000
  177       -5.295119     -5.283260   1.000000   1.000000
  178       -5.290213     -5.274339   1.000000   1.000000
  179       -5.279296     -5.252905   1.000000   1.000000
  180       -5.258069     -5.245817   1.000000   1.000000
  181       -5.220878     -5.207061   1.000000   1.000000
  182       -5.186212     -5.173907   1.000000   1.000000
  183       -5.181321     -5.163297   1.000000   1.000000
  184       -5.174238     -5.158180   1.000000   1.000000
  185       -5.162537     -5.155787   1.000000   1.000000
  186       -5.110733     -5.095206   1.000000   1.000000
  187       -5.107711     -5.093942   1.000000   1.000000
  188       -5.091861     -5.083592   1.000000   1.000000
  189       -5.078541     -5.068849   1.000000   1.000000
  190       -5.041420     -5.008092   1.000000   1.000000
  191       -4.962201     -4.948942   1.000000   1.000000
  192       -4.941678     -4.932961   1.000000   1.000000
  193       -4.922674     -4.916849   1.000000   1.000000
  194       -4.888931     -4.875876   1.000000   1.000000
  195       -4.877352     -4.869940   1.000000   1.000000
  196       -4.875867     -4.869581   1.000000   1.000000
  197       -4.844409     -4.828899   1.000000   1.000000
  198       -4.820844     -4.803353   1.000000   1.000000
  199       -4.793794     -4.789070   1.000000   1.000000
  200       -4.791989     -4.785352   1.000000   1.000000
  201       -4.786690     -4.782335   1.000000   1.000000
  202       -4.754227     -4.737341   1.000000   1.000000
  203       -4.703603     -4.701885   1.000000   1.000000
  204       -4.675470     -4.665732   1.000000   1.000000
  205       -4.672103     -4.662455   1.000000   1.000000
  206       -4.643781     -4.639034   1.000000   1.000000
  207       -4.629169     -4.623241   1.000000   1.000000
  208       -4.606776     -4.602905   1.000000   1.000000
  209       -4.597399     -4.594137   1.000000   1.000000
  210       -4.572438     -4.547896   1.000000   1.000000
  211       -4.553742     -4.537661   1.000000   1.000000
  212       -4.533792     -4.529403   1.000000   1.000000
  213       -4.523208     -4.513407   1.000000   1.000000
  214       -4.490386     -4.487804   1.000000   1.000000
  215       -4.485316     -4.480589   1.000000   1.000000
  216       -4.394136     -4.383191   1.000000   1.000000
  217       -4.314532     -4.309952   1.000000   1.000000
  218       -4.285554     -4.283066   1.000000   1.000000
  219       -4.275558     -4.268813   1.000000   1.000000
  220       -4.267292     -4.257552   1.000000   1.000000
  221       -4.179443     -4.170612   1.000000   1.000000
  222       -4.172694     -4.166258   1.000000   1.000000
  223       -4.164903     -4.145844   1.000000   1.000000
  224       -4.095191     -4.090744   1.000000   1.000000
  225       -4.022182     -4.001710   1.000000   1.000000
  226       -3.979563     -3.961777   1.000000   1.000000
  227       -3.967176     -3.915457   1.000000   1.000000
  228       -3.868853     -3.864234   1.000000   1.000000
  229       -3.836835     -3.820932   1.000000   1.000000
  230       -3.828929     -3.776196   1.000000   1.000000
  231       -3.765932     -3.764991   1.000000   1.000000
  232       -3.749416     -3.739757   1.000000   1.000000
  233       -3.741677     -3.714673   1.000000   1.000000
  234       -3.707628     -3.684133   1.000000   1.000000
  235       -3.648432     -3.573838   1.000000   1.000000
  236       -3.594052     -3.569957   1.000000   1.000000
  237       -3.568625     -3.541243   1.000000   1.000000
  238       -3.525762     -3.518533   1.000000   1.000000
  239       -3.508805     -3.503345   1.000000   1.000000
  240       -3.443661     -3.399902   1.000000   1.000000
  241       -3.409347     -3.384409   1.000000   1.000000
  242       -3.375708     -3.373972   1.000000   1.000000
  243       -3.348325     -3.309980   1.000000   1.000000
  244       -3.315317     -3.307232   1.000000   1.000000
  245       -3.258029     -3.259673   1.000000   1.000000
  246       -3.103553     -3.070325   1.000000   1.000000
  247       -3.036293     -3.011167   1.000000   1.000000
  248       -3.022321     -3.009608   1.000000   1.000000
  249       -3.014778     -3.000967   1.000000   1.000000
  250       -3.008985     -2.984759   1.000000   1.000000
  251       -2.955017     -2.950174   1.000000   1.000000
  252       -2.952583     -2.941438   1.000000   1.000000
  253       -2.936752     -2.917947   1.000000   1.000000
  254       -2.915967     -2.900561   1.000000   1.000000
  255       -2.823013     -2.806332   1.000000   1.000000
  256       -2.801091     -2.804585   1.000000   1.000000
  257       -2.793786     -2.785862   1.000000   1.000000
  258       -2.777746     -2.746986   1.000000   1.000000
  259       -2.759048     -2.718673   1.000000   1.000000
  260       -2.716032     -2.709096   1.000000   1.000000
  261       -2.624136     -2.611953   1.000000   1.000000
  262       -2.606275     -2.566520   1.000000   1.000000
  263       -2.578965     -2.552363   1.000000   1.000000
  264       -2.552365     -2.542574   1.000000   1.000000
  265       -2.528138     -2.506834   1.000000   1.000000
  266       -2.465109     -2.454088   1.000000   1.000000
  267       -2.414195     -2.417504   1.000000   1.000000
  268       -2.412133     -2.408537   1.000000   1.000000
  269       -2.407301     -2.403894   1.000000   1.000000
  270       -2.391054     -2.391649   1.000000   1.000000
  271       -2.379107     -2.376322   1.000000   1.000000
  272       -2.366690     -2.352587   1.000000   1.000000
  273       -2.359978     -2.352243   1.000000   1.000000
  274       -2.338009     -2.332602   1.000000   1.000000
  275       -2.336321     -2.323548   1.000000   1.000000
  276       -2.299227     -2.280287   1.000000   1.000000
  277       -2.298975     -2.277435   1.000000   1.000000
  278       -2.285073     -2.265753   1.000000   1.000000
  279       -2.232806     -2.229518   1.000000   1.000000
  280       -2.216978     -2.207758   1.000000   1.000000
  281       -2.191463     -2.138576   1.000000   1.000000
  282       -2.182104     -2.118824   1.000000   1.000000
  283       -2.133110     -2.094670   1.000000   1.000000
  284       -2.107155     -2.094410   1.000000   1.000000
  285       -2.106723     -2.065122   1.000000   1.000000
  286       -2.066058     -2.059832   1.000000   1.000000
  287       -2.042465     -2.036325   1.000000   1.000000
  288       -2.040991     -2.025572   1.000000   1.000000
  289       -2.004448     -2.012432   1.000000   1.000000
  290       -1.953198     -1.921718   1.000000   1.000000
  291       -1.923294     -1.910498   1.000000   1.000000
  292       -1.802476     -1.778479   1.000000   1.000000
  293       -1.781605     -1.767039   1.000000   1.000000
  294       -1.729074     -1.723815   1.000000   1.000000
  295       -1.727338     -1.711891   1.000000   1.000000
  296       -1.664018     -1.653876   1.000000   1.000000
  297       -1.652336     -1.603234   1.000000   1.000000
  298       -1.607820     -1.589175   1.000000   1.000000
  299       -1.582449     -1.574898   1.000000   1.000000
  300       -1.548081     -1.530529   1.000000   1.000000
  301       -1.543059     -1.523447   1.000000   1.000000
  302       -1.491829     -1.478110   1.000000   1.000000
  303       -1.478664     -1.464609   1.000000   1.000000
  304       -1.433047     -1.419262   1.000000   1.000000
  305       -1.425926     -1.414862   1.000000   1.000000
  306       -1.380561     -1.358940   1.000000   1.000000
  307       -1.354470     -1.321011   1.000000   1.000000
  308       -1.349338     -1.320281   1.000000   1.000000
  309       -1.259393     -1.254455   1.000000   1.000000
  310       -1.231657     -1.213313   1.000000   1.000000
  311       -1.200565     -1.147790   1.000000   1.000000
  312       -1.173705     -1.116863   1.000000   1.000000
  313       -1.136944     -1.100865   1.000000   1.000000
  314       -1.119482     -1.073048   1.000000   1.000000
  315       -1.058996     -1.047798   1.000000   1.000000
  316       -1.049860     -1.042314   1.000000   1.000000
  317       -1.034444     -1.017817   1.000000   1.000000
  318       -1.031886     -1.009255   1.000000   1.000000
  319       -0.989412     -0.973568   1.000000   1.000000
  320       -0.957182     -0.944036   1.000000   1.000000
  321       -0.936567     -0.928050   1.000000   1.000000
  322       -0.932153     -0.919990   1.000000   1.000000
  323       -0.928348     -0.849209   1.000000   1.000000
  324       -0.920641     -0.848035   1.000000   1.000000
  325       -0.914867     -0.771434   1.000000   0.999981
  326       -0.791163     -0.763356   0.999999   0.999950
  327       -0.772413     -0.735622   0.999983   0.999056
  328       -0.719334     -0.718920   0.995935   0.995792
  329       -0.615805     -0.600529   0.389120   0.237714
  330       -0.601756     -0.578106   0.248580   0.088845
  331       -0.601495     -0.552077   0.246245   0.018575
  332       -0.595861     -0.538967   0.198855   0.007046
  333       -0.528338     -0.517647   0.002930   0.001114
  334       -0.511890     -0.496293   0.000639   0.000125
  335       -0.505662     -0.468183   0.000341   0.000004
  336       -0.392521     -0.374114   0.000000   0.000000
  337       -0.332171     -0.317145   0.000000   0.000000
  338       -0.329346     -0.289374   0.000000   0.000000
  339       -0.194031     -0.151274   0.000000   0.000000
  340       -0.190942     -0.140365   0.000000   0.000000
  341       -0.183300     -0.135015   0.000000   0.000000
  342       -0.160865     -0.134792   0.000000   0.000000
  343       -0.138763     -0.086449   0.000000   0.000000
  344       -0.066203     -0.050973   0.000000   0.000000
  345       -0.054527     -0.041527   0.000000   0.000000
  346       -0.022704     -0.010006   0.000000   0.000000
  347       -0.013106      0.011800   0.000000   0.000000
  348        0.127732      0.165023   0.000000   0.000000
  349        0.227294      0.271692   0.000000   0.000000
  350        0.421869      0.421670   0.000000   0.000000
  351        0.426309      0.451040   0.000000   0.000000
  352        0.603530      0.621555   0.000000   0.000000
  353        0.719219      0.731504   0.000000   0.000000
  354        0.739952      0.735789   0.000000   0.000000
  355        0.904211      0.909366   0.000000   0.000000
  356        1.213243      1.223969   0.000000   0.000000
  357        1.219112      1.227374   0.000000   0.000000
  358        1.261734      1.270401   0.000000   0.000000
  359        1.400010      1.398993   0.000000   0.000000
  360        1.426070      1.425949   0.000000   0.000000
  361        1.431437      1.443208   0.000000   0.000000
  362        1.597921      1.606882   0.000000   0.000000
  363        1.621840      1.636333   0.000000   0.000000
  364        1.668530      1.690185   0.000000   0.000000
  365        1.721641      1.735302   0.000000   0.000000
  366        1.835215      1.845227   0.000000   0.000000
  367        1.871238      1.882129   0.000000   0.000000
  368        1.872830      1.883818   0.000000   0.000000
  369        1.919251      1.939502   0.000000   0.000000
  370        1.984989      1.996500   0.000000   0.000000
  371        2.033169      2.038815   0.000000   0.000000
  372        2.129347      2.149944   0.000000   0.000000
  373        2.144349      2.155526   0.000000   0.000000
  374        2.146750      2.157688   0.000000   0.000000
  375        2.154606      2.159081   0.000000   0.000000
  376        2.156476      2.183367   0.000000   0.000000
  377        2.179497      2.188566   0.000000   0.000000
  378        2.185713      2.192957   0.000000   0.000000
  379        2.192218      2.202084   0.000000   0.000000
  380        2.287307      2.297560   0.000000   0.000000
  381        2.293268      2.303883   0.000000   0.000000
  382        2.344900      2.354223   0.000000   0.000000
  383        2.349218      2.362667   0.000000   0.000000
  384        2.349373      2.362701   0.000000   0.000000
  385        2.366809      2.375419   0.000000   0.000000
  386        2.427691      2.433169   0.000000   0.000000
  387        2.474310      2.481221   0.000000   0.000000
  388        2.577973      2.618857   0.000000   0.000000
  389        2.730416      2.743477   0.000000   0.000000
  390        2.856259      2.878433   0.000000   0.000000
  391        2.961531      2.970348   0.000000   0.000000
  392        3.055705      3.069628   0.000000   0.000000
  393        3.090815      3.112257   0.000000   0.000000
  394        3.168230      3.166780   0.000000   0.000000
  395        3.225328      3.230696   0.000000   0.000000
  396        3.230234      3.232304   0.000000   0.000000
  397        3.237256      3.239126   0.000000   0.000000
  398        3.287293      3.293623   0.000000   0.000000
  399        3.353707      3.369924   0.000000   0.000000
  400        3.369740      3.399541   0.000000   0.000000
  401        3.421262      3.434102   0.000000   0.000000
  402        3.467913      3.473604   0.000000   0.000000
  403        3.522351      3.528429   0.000000   0.000000
  404        3.586656      3.616696   0.000000   0.000000
  405        3.641280      3.663225   0.000000   0.000000
  406        3.978747      3.985527   0.000000   0.000000
  407        4.298735      4.309812   0.000000   0.000000
  408        4.388309      4.400016   0.000000   0.000000
  409        4.757296      4.781766   0.000000   0.000000
  410        4.757573      4.782089   0.000000   0.000000
  411        4.800035      4.815430   0.000000   0.000000
  412        5.398104      5.471110   0.000000   0.000000
  413        5.715628      5.719273   0.000000   0.000000
  414        5.754756      5.747211   0.000000   0.000000
  415        5.901973      5.899857   0.000000   0.000000
  416        5.971263      5.977502   0.000000   0.000000
  417        6.178923      6.196826   0.000000   0.000000
  418        6.209839      6.243811   0.000000   0.000000
  419        6.273789      6.355426   0.000000   0.000000
  420        6.333904      6.377582   0.000000   0.000000
 
  0.3333333E+00  0.0000000E+00  0.0000000E+00  0.2222222E+00
    1      -21.307268    -21.302122   1.000000   1.000000
    2      -21.147091    -21.140238   1.000000   1.000000
    3      -21.036382    -21.030782   1.000000   1.000000
    4      -20.886050    -20.880479   1.000000   1.000000
    5      -20.838563    -20.834084   1.000000   1.000000
    6      -20.711982    -20.707966   1.000000   1.000000
    7      -20.677625    -20.670722   1.000000   1.000000
    8      -20.637891    -20.631656   1.000000   1.000000
    9      -20.566291    -20.554141   1.000000   1.000000
   10      -20.539318    -20.531552   1.000000   1.000000
   11      -20.458103    -20.450393   1.000000   1.000000
   12      -20.415625    -20.407873   1.000000   1.000000
   13      -20.397871    -20.388758   1.000000   1.000000
   14      -20.346296    -20.338864   1.000000   1.000000
   15      -20.318156    -20.312842   1.000000   1.000000
   16      -20.306947    -20.298029   1.000000   1.000000
   17      -20.252075    -20.240293   1.000000   1.000000
   18      -20.195299    -20.189159   1.000000   1.000000
   19      -20.177244    -20.169180   1.000000   1.000000
   20      -20.145743    -20.140838   1.000000   1.000000
   21      -20.119800    -20.114078   1.000000   1.000000
   22      -20.071997    -20.071783   1.000000   1.000000
   23      -20.056491    -20.054295   1.000000   1.000000
   24      -20.031062    -20.025921   1.000000   1.000000
   25      -20.002765    -19.987147   1.000000   1.000000
   26      -19.989733    -19.975383   1.000000   1.000000
   27      -19.963805    -19.962754   1.000000   1.000000
   28      -19.952086    -19.947365   1.000000   1.000000
   29      -19.922174    -19.917151   1.000000   1.000000
   30      -19.917374    -19.898002   1.000000   1.000000
   31      -19.894951    -19.889791   1.000000   1.000000
   32      -19.884915    -19.884208   1.000000   1.000000
   33      -19.841708    -19.836738   1.000000   1.000000
   34      -19.835161    -19.814103   1.000000   1.000000
   35      -19.813790    -19.809264   1.000000   1.000000
   36      -19.794170    -19.788854   1.000000   1.000000
   37      -19.746874    -19.735213   1.000000   1.000000
   38      -19.730241    -19.727970   1.000000   1.000000
   39      -19.717004    -19.709685   1.000000   1.000000
   40      -19.679590    -19.671359   1.000000   1.000000
   41      -19.667063    -19.665771   1.000000   1.000000
   42      -19.644209    -19.633363   1.000000   1.000000
   43      -19.621068    -19.615655   1.000000   1.000000
   44      -19.612223    -19.597827   1.000000   1.000000
   45      -19.588497    -19.583812   1.000000   1.000000
   46      -19.579001    -19.578428   1.000000   1.000000
   47      -19.529864    -19.525029   1.000000   1.000000
   48      -19.497301    -19.494525   1.000000   1.000000
   49      -19.484446    -19.488539   1.000000   1.000000
   50      -19.333298    -19.320424   1.000000   1.000000
   51      -19.225101    -19.220798   1.000000   1.000000
   52      -19.149531    -19.134734   1.000000   1.000000
   53      -19.044817    -19.035572   1.000000   1.000000
   54      -18.844827    -18.849110   1.000000   1.000000
   55      -18.803333    -18.806754   1.000000   1.000000
   56      -18.459341    -18.297238   1.000000   1.000000
   57      -18.445117    -18.281766   1.000000   1.000000
   58      -18.294863    -18.271414   1.000000   1.000000
   59      -18.277711    -18.251602   1.000000   1.000000
   60      -18.263005    -18.239623   1.000000   1.000000
   61      -18.238937    -18.231380   1.000000   1.000000
   62      -18.228623    -18.216751   1.000000   1.000000
   63      -18.222259    -18.192083   1.000000   1.000000
   64      -17.941909    -17.948931   1.000000   1.000000
   65       -9.789107     -9.787064   1.000000   1.000000
   66       -9.775191     -9.773329   1.000000   1.000000
   67       -9.714440     -9.710211   1.000000   1.000000
   68       -9.564813     -9.562671   1.000000   1.000000
   69       -9.558058     -9.556144   1.000000   1.000000
   70       -9.496633     -9.492440   1.000000   1.000000
   71       -9.358251     -9.348433   1.000000   1.000000
   72       -9.275858     -9.260383   1.000000   1.000000
   73       -9.232227     -9.223312   1.000000   1.000000
   74       -9.145905     -9.133597   1.000000   1.000000
   75       -8.957795     -8.956137   1.000000   1.000000
   76       -8.883486     -8.881084   1.000000   1.000000
   77       -8.855837     -8.853428   1.000000   1.000000
   78       -8.806661     -8.802381   1.000000   1.000000
   79       -8.769167     -8.765438   1.000000   1.000000
   80       -8.621844     -8.617435   1.000000   1.000000
   81       -8.572160     -8.569397   1.000000   1.000000
   82       -8.548819     -8.544592   1.000000   1.000000
   83       -8.497575     -8.494136   1.000000   1.000000
   84       -8.487162     -8.481373   1.000000   1.000000
   85       -8.395599     -8.392002   1.000000   1.000000
   86       -8.323833     -8.309222   1.000000   1.000000
   87       -8.308372     -8.302318   1.000000   1.000000
   88       -8.296449     -8.291182   1.000000   1.000000
   89       -8.260491     -8.258945   1.000000   1.000000
   90       -8.241886     -8.236963   1.000000   1.000000
   91       -8.230013     -8.226552   1.000000   1.000000