 vasp.5.4.4.18Apr17-6-g9f103f2a35 (build Feb 25 2019 10:51:38) complex          
  
 executed on             LinuxIFC date 2023.03.14  11:42:55
 running on   40 total cores
 distrk:  each k-point on   40 cores,    1 groups
 distr:  one band on NCORES_PER_BAND=   1 cores,   40 groups


--------------------------------------------------------------------------------------------------------


 INCAR:
 POTCAR:    PAW_PBE Ir 06Sep2000                  
 POTCAR:    PAW_PBE O 08Apr2002                   
 POTCAR:    PAW_PBE Ir 06Sep2000                  
 POTCAR:    PAW_PBE O 08Apr2002                   

 ----------------------------------------------------------------------------- 
|                                                                             |
|           W    W    AA    RRRRR   N    N  II  N    N   GGGG   !!!           |
|           W    W   A  A   R    R  NN   N  II  NN   N  G    G  !!!           |
|           W    W  A    A  R    R  N N  N  II  N N  N  G       !!!           |
|           W WW W  AAAAAA  RRRRR   N  N N  II  N  N N  G  GGG   !            |
|           WW  WW  A    A  R   R   N   NN  II  N   NN  G    G                |
|           W    W  A    A  R    R  N    N  II  N    N   GGGG   !!!           |
|                                                                             |
|      For optimal performance we recommend to set                            |
|        NCORE= 4 - approx SQRT( number of cores)                             |
|      NCORE specifies how many cores store one orbital (NPAR=cpu/NCORE).     |
|      This setting can  greatly improve the performance of VASP for DFT.     |
|      The default,   NCORE=1            might be grossly inefficient         |
|      on modern multi-core architectures or massively parallel machines.     |
|      Do your own testing !!!!                                               |
|      Unfortunately you need to use the default for GW and RPA calculations. |
|      (for HF NCORE is supported but not extensively tested yet)             |
|                                                                             |
 ----------------------------------------------------------------------------- 

 POTCAR:    PAW_PBE Ir 06Sep2000                  
   VRHFIN =Ir: s1d8                                                             
   LEXCH  = PE                                                                  
   EATOM  =   560.1833 eV,   41.1723 Ry                                         
                                                                                
   TITEL  = PAW_PBE Ir 06Sep2000                                                
   LULTRA =        F    use ultrasoft PP ?                                      
   IUNSCR =        1    unscreen: 0-lin 1-nonlin 2-no                           
   RPACOR =    2.250    partial core radius                                     
   POMASS =  192.220; ZVAL   =    9.000    mass and valenz                      
   RCORE  =    2.600    outmost cutoff radius                                   
   RWIGS  =    2.690; RWIGS  =    1.423    wigner-seitz radius (au A)           
   ENMAX  =  210.864; ENMIN  =  158.148 eV                                      
   RCLOC  =    1.857    cutoff for local pot                                    
   LCOR   =        T    correct aug charges                                     
   LPAW   =        T    paw PP                                                  
   EAUG   =  318.962                                                            
   DEXC   =    0.000                                                            
   RMAX   =    2.667    core radius for proj-oper                               
   RAUG   =    1.300    factor for augmentation sphere                          
   RDEP   =    2.748    radius for radial grids                                 
   RDEPT  =    2.300    core radius for aug-charge                              
                                                                                
   Atomic configuration                                                         
   16 entries                                                                   
     n  l   j            E        occ.                                          
     1  0  0.50    -76100.0449   2.0000                                         
     2  0  0.50    -13308.1683   2.0000                                         
     2  1  1.50    -11558.0021   6.0000                                         
     3  0  0.50     -3110.7274   2.0000                                         
     3  1  1.50     -2599.2109   6.0000                                         
     3  2  2.50     -2037.1515  10.0000                                         
     4  0  0.50      -661.6001   2.0000                                         
     4  1  1.50      -493.8981   6.0000                                         
     4  2  2.50      -288.1909  10.0000                                         
     4  3  3.50       -59.5718  14.0000                                         
     5  0  0.50       -95.3879   2.0000                                         
     5  1  1.50       -52.2747   6.0000                                         
     5  2  2.50        -5.4180   8.0000                                         
     6  0  0.50        -5.5479   1.0000                                         
     6  1  1.50        -6.8029   0.0000                                         
     5  3  2.50        -1.3606   0.0000                                         
   Description                                                                  
     l       E           TYP  RCUT    TYP  RCUT                                 
     2     -5.4179967     23  2.600                                             
     2     -6.7785793     23  2.600                                             
     0     -5.5478636     23  2.600                                             
     0      2.2542272     23  2.600                                             
     1     -2.7211652     23  2.600                                             
     1     20.4087390     23  2.600                                             
  local pseudopotential read in
  partial core-charges read in
  partial kinetic energy density read in
  atomic valenz-charges read in
  non local Contribution for L=           2  read in
    real space projection operators read in
  non local Contribution for L=           2  read in
    real space projection operators read in
  non local Contribution for L=           0  read in
    real space projection operators read in
  non local Contribution for L=           0  read in
    real space projection operators read in
  non local Contribution for L=           1  read in
    real space projection operators read in
  non local Contribution for L=           1  read in
    real space projection operators read in
    PAW grid and wavefunctions read in
 
   number of l-projection  operators is LMAX  =           6
   number of lm-projection operators is LMMAX =          18
 
 POTCAR:    PAW_PBE O 08Apr2002                   
   VRHFIN =O: s2p4                                                              
   LEXCH  = PE                                                                  
   EATOM  =   432.3788 eV,   31.7789 Ry                                         
                                                                                
   TITEL  = PAW_PBE O 08Apr2002                                                 
   LULTRA =        F    use ultrasoft PP ?                                      
   IUNSCR =        1    unscreen: 0-lin 1-nonlin 2-no                           
   RPACOR =    1.200    partial core radius                                     
   POMASS =   16.000; ZVAL   =    6.000    mass and valenz                      
   RCORE  =    1.520    outmost cutoff radius                                   
   RWIGS  =    1.550; RWIGS  =    0.820    wigner-seitz radius (au A)           
   ENMAX  =  400.000; ENMIN  =  300.000 eV                                      
   ICORE  =        2    local potential                                         
   LCOR   =        T    correct aug charges                                     
   LPAW   =        T    paw PP                                                  
   EAUG   =  605.392                                                            
   DEXC   =    0.000                                                            
   RMAX   =    1.553    core radius for proj-oper                               
   RAUG   =    1.300    factor for augmentation sphere                          
   RDEP   =    1.550    radius for radial grids                                 
   RDEPT  =    1.329    core radius for aug-charge                              
                                                                                
   Atomic configuration                                                         
    4 entries                                                                   
     n  l   j            E        occ.                                          
     1  0  0.50      -514.6923   2.0000                                         
     2  0  0.50       -23.9615   2.0000                                         
     2  1  0.50        -9.0305   4.0000                                         
     3  2  1.50        -9.5241   0.0000                                         
   Description                                                                  
     l       E           TYP  RCUT    TYP  RCUT                                 
     0    -23.9615318     23  1.200                                             
     0     -9.5240782     23  1.200                                             
     1     -9.0304911     23  1.520                                             
     1      8.1634956     23  1.520                                             
     2     -9.5240782      7  1.500                                             
  local pseudopotential read in
  partial core-charges read in
  partial kinetic energy density read in
  kinetic energy density of atom read in
  atomic valenz-charges read in
  non local Contribution for L=           0  read in
    real space projection operators read in
  non local Contribution for L=           0  read in
    real space projection operators read in
  non local Contribution for L=           1  read in
    real space projection operators read in
  non local Contribution for L=           1  read in
    real space projection operators read in
    PAW grid and wavefunctions read in
 
   number of l-projection  operators is LMAX  =           4
   number of lm-projection operators is LMMAX =           8
 
 POTCAR:    PAW_PBE Ir 06Sep2000                  
   VRHFIN =Ir: s1d8                                                             
   LEXCH  = PE                                                                  
   EATOM  =   560.1833 eV,   41.1723 Ry                                         
                                                                                
   TITEL  = PAW_PBE Ir 06Sep2000                                                
   LULTRA =        F    use ultrasoft PP ?                                      
   IUNSCR =        1    unscreen: 0-lin 1-nonlin 2-no                           
   RPACOR =    2.250    partial core radius                                     
   POMASS =  192.220; ZVAL   =    9.000    mass and valenz                      
   RCORE  =    2.600    outmost cutoff radius                                   
   RWIGS  =    2.690; RWIGS  =    1.423    wigner-seitz radius (au A)           
   ENMAX  =  210.864; ENMIN  =  158.148 eV                                      
   RCLOC  =    1.857    cutoff for local pot                                    
   LCOR   =        T    correct aug charges                                     
   LPAW   =        T    paw PP                                                  
   EAUG   =  318.962                                                            
   DEXC   =    0.000                                                            
   RMAX   =    2.667    core radius for proj-oper                               
   RAUG   =    1.300    factor for augmentation sphere                          
   RDEP   =    2.748    radius for radial grids                                 
   RDEPT  =    2.300    core radius for aug-charge                              
                                                                                
   Atomic configuration                                                         
   16 entries                                                                   
     n  l   j            E        occ.                                          
     1  0  0.50    -76100.0449   2.0000                                         
     2  0  0.50    -13308.1683   2.0000                                         
     2  1  1.50    -11558.0021   6.0000                                         
     3  0  0.50     -3110.7274   2.0000                                         
     3  1  1.50     -2599.2109   6.0000                                         
     3  2  2.50     -2037.1515  10.0000                                         
     4  0  0.50      -661.6001   2.0000                                         
     4  1  1.50      -493.8981   6.0000                                         
     4  2  2.50      -288.1909  10.0000                                         
     4  3  3.50       -59.5718  14.0000                                         
     5  0  0.50       -95.3879   2.0000                                         
     5  1  1.50       -52.2747   6.0000                                         
     5  2  2.50        -5.4180   8.0000                                         
     6  0  0.50        -5.5479   1.0000                                         
     6  1  1.50        -6.8029   0.0000                                         
     5  3  2.50        -1.3606   0.0000                                         
   Description                                                                  
     l       E           TYP  RCUT    TYP  RCUT                                 
     2     -5.4179967     23  2.600                                             
     2     -6.7785793     23  2.600                                             
     0     -5.5478636     23  2.600                                             
     0      2.2542272     23  2.600                                             
     1     -2.7211652     23  2.600                                             
     1     20.4087390     23  2.600                                             
  local pseudopotential read in
  partial core-charges read in
  partial kinetic energy density read in
  atomic valenz-charges read in
  non local Contribution for L=           2  read in
    real space projection operators read in
  non local Contribution for L=           2  read in
    real space projection operators read in
  non local Contribution for L=           0  read in
    real space projection operators read in
  non local Contribution for L=           0  read in
    real space projection operators read in
  non local Contribution for L=           1  read in
    real space projection operators read in
  non local Contribution for L=           1  read in
    real space projection operators read in
    PAW grid and wavefunctions read in
 
   number of l-projection  operators is LMAX  =           6
   number of lm-projection operators is LMMAX =          18
 
 POTCAR:    PAW_PBE O 08Apr2002                   
   VRHFIN =O: s2p4                                                              
   LEXCH  = PE                                                                  
   EATOM  =   432.3788 eV,   31.7789 Ry                                         
                                                                                
   TITEL  = PAW_PBE O 08Apr2002                                                 
   LULTRA =        F    use ultrasoft PP ?                                      
   IUNSCR =        1    unscreen: 0-lin 1-nonlin 2-no                           
   RPACOR =    1.200    partial core radius                                     
   POMASS =   16.000; ZVAL   =    6.000    mass and valenz                      
   RCORE  =    1.520    outmost cutoff radius                                   
   RWIGS  =    1.550; RWIGS  =    0.820    wigner-seitz radius (au A)           
   ENMAX  =  400.000; ENMIN  =  300.000 eV                                      
   ICORE  =        2    local potential                                         
   LCOR   =        T    correct aug charges                                     
   LPAW   =        T    paw PP                                                  
   EAUG   =  605.392                                                            
   DEXC   =    0.000                                                            
   RMAX   =    1.553    core radius for proj-oper                               
   RAUG   =    1.300    factor for augmentation sphere                          
   RDEP   =    1.550    radius for radial grids                                 
   RDEPT  =    1.329    core radius for aug-charge                              
                                                                                
   Atomic configuration                                                         
    4 entries                                                                   
     n  l   j            E        occ.                                          
     1  0  0.50      -514.6923   2.0000                                         
     2  0  0.50       -23.9615   2.0000                                         
     2  1  0.50        -9.0305   4.0000                                         
     3  2  1.50        -9.5241   0.0000                                         
   Description                                                                  
     l       E           TYP  RCUT    TYP  RCUT                                 
     0    -23.9615318     23  1.200                                             
     0     -9.5240782     23  1.200                                             
     1     -9.0304911     23  1.520                                             
     1      8.1634956     23  1.520                                             
     2     -9.5240782      7  1.500                                             
  local pseudopotential read in
  partial core-charges read in
  partial kinetic energy density read in
  kinetic energy density of atom read in
  atomic valenz-charges read in
  non local Contribution for L=           0  read in
    real space projection operators read in
  non local Contribution for L=           0  read in
    real space projection operators read in
  non local Contribution for L=           1  read in
    real space projection operators read in
  non local Contribution for L=           1  read in
    real space projection operators read in
    PAW grid and wavefunctions read in
 
   number of l-projection  operators is LMAX  =           4
   number of lm-projection operators is LMMAX =           8
 
 Optimization of the real space projectors (new method)

 maximal supplied QI-value         = 14.36
 optimisation between [QCUT,QGAM] = [ 11.35, 22.84] = [ 36.05,146.02] Ry 
 Optimized for a Real-space Cutoff    1.52 Angstroem

   l    n(q)    QCUT    max X(q) W(low)/X(q) W(high)/X(q)  e(spline) 
   2      9    11.346   134.116    0.47E-03    0.13E-03    0.92E-06
   2      9    11.346   130.192    0.47E-03    0.13E-03    0.92E-06
   0     10    11.346    60.310    0.74E-04    0.13E-03    0.69E-06
   0     10    11.346    39.218    0.68E-04    0.12E-03    0.65E-06
   1     10    11.346    18.439    0.15E-03    0.34E-04    0.20E-06
   1     10    11.346    12.760    0.12E-03    0.31E-04    0.16E-06
 Optimization of the real space projectors (new method)

 maximal supplied QI-value         = 24.76
 optimisation between [QCUT,QGAM] = [ 11.39, 22.77] = [ 36.31,145.25] Ry 
 Optimized for a Real-space Cutoff    1.00 Angstroem

   l    n(q)    QCUT    max X(q) W(low)/X(q) W(high)/X(q)  e(spline) 
   0      7    11.387    20.381    0.39E-03    0.13E-02    0.15E-06
   0      7    11.387    15.268    0.42E-03    0.14E-02    0.17E-06
   1      6    11.387     5.964    0.41E-03    0.11E-02    0.17E-06
   1      6    11.387     5.382    0.39E-03    0.87E-03    0.15E-06
 Optimization of the real space projectors (new method)

 maximal supplied QI-value         = 14.36
 optimisation between [QCUT,QGAM] = [ 11.35, 22.84] = [ 36.05,146.02] Ry 
 Optimized for a Real-space Cutoff    1.52 Angstroem

   l    n(q)    QCUT    max X(q) W(low)/X(q) W(high)/X(q)  e(spline) 
   2      9    11.346   134.116    0.47E-03    0.13E-03    0.92E-06
   2      9    11.346   130.192    0.47E-03    0.13E-03    0.92E-06
   0     10    11.346    60.310    0.74E-04    0.13E-03    0.69E-06
   0     10    11.346    39.218    0.68E-04    0.12E-03    0.65E-06
   1     10    11.346    18.439    0.15E-03    0.34E-04    0.20E-06
   1     10    11.346    12.760    0.12E-03    0.31E-04    0.16E-06
 Optimization of the real space projectors (new method)

 maximal supplied QI-value         = 24.76
 optimisation between [QCUT,QGAM] = [ 11.39, 22.77] = [ 36.31,145.25] Ry 
 Optimized for a Real-space Cutoff    1.00 Angstroem

   l    n(q)    QCUT    max X(q) W(low)/X(q) W(high)/X(q)  e(spline) 
   0      7    11.387    20.381    0.39E-03    0.13E-02    0.15E-06
   0      7    11.387    15.268    0.42E-03    0.14E-02    0.17E-06
   1      6    11.387     5.964    0.41E-03    0.11E-02    0.17E-06
   1      6    11.387     5.382    0.39E-03    0.87E-03    0.15E-06

 ----------------------------------------------------------------------------- 
|                                                                             |
|  ADVICE TO THIS USER RUNNING 'VASP/VAMP'   (HEAR YOUR MASTER'S VOICE ...):  |
|                                                                             |
|      You enforced a specific xc-type in the INCAR file,                     |
|      a different type was found on the POTCAR file                          |
|          I HOPE YOU KNOW, WHAT YOU ARE  DOING                               |
|                                                                             |
 ----------------------------------------------------------------------------- 

  PAW_PBE Ir 06Sep2000                  :
 energy of atom  1       EATOM= -560.1833
 kinetic energy error for atom=    0.0018 (will be added to EATOM!!)
  PAW_PBE O 08Apr2002                   :
 energy of atom  2       EATOM= -432.3788
 kinetic energy error for atom=    0.0224 (will be added to EATOM!!)
  PAW_PBE Ir 06Sep2000                  :
 energy of atom  3       EATOM= -560.1833
 kinetic energy error for atom=    0.0018 (will be added to EATOM!!)
  PAW_PBE O 08Apr2002                   :
 energy of atom  4       EATOM= -432.3788
 kinetic energy error for atom=    0.0224 (will be added to EATOM!!)
 
 
 POSCAR: Ir  O Ir  O                             
  positions in cartesian coordinates
  No initial velocities read in
 exchange correlation table for  LEXCH =        9
   RHO(1)=    0.500       N(1)  =     2000
   RHO(2)=  100.500       N(2)  =     4000

 VTST: version 3.2, (02/03/18)

 CHAIN: initializing optimizer
 
 OPT: Using VASP Dynamics algorithm
 CHAIN: Read ICHAIN            0
 
 POSCAR: Ir  O Ir  O                             
  positions in cartesian coordinates
  No initial velocities read in
 


--------------------------------------------------------------------------------------------------------


 ion  position               nearest neighbor table
   1  0.125  0.500  0.188-  20 2.00  28 2.00  16 2.02  24 2.02  25 2.02  17 2.02   2 3.20  49 3.20

   2  0.375  0.500  0.188-  21 2.00  29 2.00  25 2.02  17 2.02  64 2.02  72 2.02   1 3.20  48 3.20

   3  0.125  0.000  0.062-  22 2.00  30 2.00  18 2.02  26 2.02  27 2.02  19 2.02   4 3.20  51 3.20

   4  0.375  0.000  0.062-  23 2.00  31 2.00  27 2.02  19 2.02  66 2.02  74 2.02   3 3.20  50 3.20

   5  0.000  0.500  0.062-  16 2.00  22 2.02  30 2.02  71 2.02  79 2.02   6 3.20  53 3.20
   6  0.250  0.500  0.062-  17 2.00  22 2.02  23 2.02  30 2.02  31 2.02   5 3.20  52 3.20
   7  0.000  0.000  0.188-  34 1.98  26 2.00  28 2.02  20 2.02  69 2.02  77 2.02   8 3.20  55 3.20

   8  0.250  0.000  0.188-  35 1.99  27 2.00  20 2.02  28 2.02  29 2.02  21 2.02   7 3.20  54 3.20

   9  0.127  0.500  0.440-  36 1.91  44 1.91  40 2.01  41 2.03  33 2.05  32 2.06  10 3.19  57 3.24

  10  0.375  0.500  0.439-  41 1.97  88 1.98  37 2.00  45 2.00  33 2.03  80 2.04   9 3.19  56 3.19

  11  0.122  0.000  0.312-  42 1.96  38 1.99  46 1.99  34 2.00  43 2.04  35 2.06  59 3.14  12 3.26

  12  0.377  0.000  0.312-  39 1.99  47 1.99  82 2.01  43 2.03  90 2.03  35 2.03  58 3.19  11 3.26

  13  1.000  0.500  0.314-  32 2.00  38 2.02  46 2.02  24 2.02  95 2.03  87 2.03  61 3.20  14 3.20

  14  0.250  0.500  0.313-  33 1.99  25 2.01  39 2.03  47 2.03  46 2.03  38 2.03  13 3.20  60 3.20

  15  0.243  0.000  0.435-  36 1.91  44 1.91  43 1.96  45 2.07  37 2.07  62 3.29
  16  0.000  0.500  0.140-   5 2.00   1 2.02  49 2.02
  17  0.250  0.500  0.140-   6 2.00   2 2.02   1 2.02
  18  0.000  0.000  0.015-   3 2.02  51 2.02
  19  0.250  0.000  0.015-   3 2.02   4 2.02
  20  0.125  0.808  0.188-   1 2.00   7 2.02   8 2.02
  21  0.375  0.808  0.188-   2 2.00   8 2.02  54 2.02
  22  0.125  0.308  0.062-   3 2.00   5 2.02   6 2.02
  23  0.375  0.308  0.062-   4 2.00   6 2.02  52 2.02
  24  0.000  0.500  0.235-  13 2.02   1 2.02  49 2.02
  25  0.250  0.500  0.235-  14 2.01   2 2.02   1 2.02
  26  0.000  0.000  0.110-   7 2.00   3 2.02  51 2.02
  27  0.250  0.000  0.110-   8 2.00   4 2.02   3 2.02
  28  0.125  0.192  0.188-   1 2.00   7 2.02   8 2.02
  29  0.375  0.192  0.188-   2 2.00   8 2.02  54 2.02
  30  0.125  0.692  0.062-   3 2.00   5 2.02   6 2.02
  31  0.375  0.692  0.062-   4 2.00   6 2.02  52 2.02
  32  0.000  0.500  0.391-  13 2.00  57 2.05   9 2.06
  33  0.251  0.500  0.390-  14 1.99  10 2.03   9 2.05
  34  1.000  0.000  0.264-   7 1.98  11 2.00  59 2.02
  35  0.251  0.000  0.265-   8 1.99  12 2.03  11 2.06
  36  0.137  0.794  0.443-  15 1.91   9 1.91
  37  0.372  0.809  0.438-  10 2.00  62 2.05  15 2.07
  38  0.124  0.308  0.313-  11 1.99  13 2.02  14 2.03
  39  0.375  0.308  0.313-  12 1.99  60 2.02  14 2.03
  40  0.999  0.500  0.485-  57 1.99   9 2.01
  41  0.255  0.500  0.486-  10 1.97   9 2.03
  42  0.001  0.000  0.358-  11 1.96  59 1.97
  43  0.250  0.000  0.359-  15 1.96  12 2.03  11 2.04
  44  0.137  0.206  0.443-  15 1.91   9 1.91
  45  0.372  0.191  0.438-  10 2.00  62 2.05  15 2.07
  46  0.124  0.692  0.313-  11 1.99  13 2.02  14 2.03
  47  0.375  0.692  0.313-  12 1.99  60 2.02  14 2.03
  48  0.625  0.500  0.188-  68 2.00  76 2.00  64 2.02  72 2.02  73 2.02  65 2.02   2 3.20  49 3.20

  49  0.875  0.500  0.188-  69 2.00  77 2.00  65 2.02  16 2.02  73 2.02  24 2.02   1 3.20  48 3.20

  50  0.625  0.000  0.062-  70 2.00  78 2.00  66 2.02  74 2.02  75 2.02  67 2.02   4 3.20  51 3.20

  51  0.875  0.000  0.062-  71 2.00  79 2.00  67 2.02  18 2.02  75 2.02  26 2.02   3 3.20  50 3.20

  52  0.500  0.500  0.062-  64 2.00  31 2.02  23 2.02  70 2.02  78 2.02  53 3.20   6 3.20
  53  0.750  0.500  0.062-  65 2.00  70 2.02  71 2.02  78 2.02  79 2.02  52 3.20   5 3.20
  54  0.500  0.000  0.188-  74 2.00  82 2.00  68 2.02  21 2.02  76 2.02  29 2.02   8 3.20  55 3.20

  55  0.750  0.000  0.188-  75 2.00  83 2.00  68 2.02  76 2.02  77 2.02  69 2.02   7 3.20  54 3.20

  56  0.624  0.500  0.438-  88 1.97  89 1.99  84 2.00  92 2.00  81 2.02  80 2.03  10 3.19  57 3.20

  57  0.874  0.500  0.439-  85 1.92  93 1.92  40 1.99  89 2.00  32 2.05  81 2.07  56 3.20   9 3.24

  58  0.626  0.000  0.313-  86 1.99  94 1.99  83 2.02  91 2.02  82 2.03  90 2.04  12 3.19  59 3.22

  59  0.877  0.000  0.313-  42 1.97  87 1.99  95 1.99  34 2.02  91 2.03  83 2.05  11 3.14  58 3.22

  60  0.500  0.500  0.313-  80 1.98  72 2.01  39 2.02  47 2.02  94 2.03  86 2.03  61 3.20  14 3.20

  61  0.750  0.500  0.313-  81 1.98  73 2.01  94 2.03  86 2.03  95 2.03  87 2.03  60 3.20  13 3.20

  62  0.499  0.000  0.441-  97 1.79  92 2.04  84 2.04  45 2.05  37 2.05  90 2.07  63 3.29  15 3.29

  63  0.756  0.000  0.442-  96 1.79  93 1.94  85 1.94  84 2.09  92 2.09  91 2.11  62 3.29
  64  0.500  0.500  0.140-  52 2.00  48 2.02   2 2.02
  65  0.750  0.500  0.140-  53 2.00  49 2.02  48 2.02
  66  0.500  0.000  0.015-   4 2.02  50 2.02
  67  0.750  0.000  0.015-  50 2.02  51 2.02
  68  0.625  0.808  0.188-  48 2.00  54 2.02  55 2.02
  69  0.875  0.808  0.188-  49 2.00   7 2.02  55 2.02
  70  0.625  0.308  0.062-  50 2.00  52 2.02  53 2.02
  71  0.875  0.308  0.062-  51 2.00   5 2.02  53 2.02
  72  0.500  0.500  0.235-  60 2.01  48 2.02   2 2.02
  73  0.750  0.500  0.235-  61 2.01  49 2.02  48 2.02
  74  0.500  0.000  0.110-  54 2.00  50 2.02   4 2.02
  75  0.750  0.000  0.110-  55 2.00  51 2.02  50 2.02
  76  0.625  0.192  0.188-  48 2.00  54 2.02  55 2.02
  77  0.875  0.192  0.188-  49 2.00   7 2.02  55 2.02
  78  0.625  0.692  0.062-  50 2.00  52 2.02  53 2.02
  79  0.875  0.692  0.062-  51 2.00   5 2.02  53 2.02
  80  0.500  0.500  0.390-  60 1.98  56 2.03  10 2.04
  81  0.748  0.500  0.390-  61 1.98  56 2.02  57 2.07
  82  0.501  0.000  0.265-  54 2.00  12 2.01  58 2.03
  83  0.750  0.000  0.265-  55 2.00  58 2.02  59 2.05
  84  0.626  0.809  0.436-  56 2.00  62 2.04  63 2.09
  85  0.866  0.796  0.437-  57 1.92  63 1.94
  86  0.625  0.307  0.313-  58 1.99  61 2.03  60 2.03
  87  0.875  0.308  0.313-  59 1.99  13 2.03  61 2.03
  88  0.501  0.500  0.484-  56 1.97  10 1.98
  89  0.747  0.500  0.485-  56 1.99  57 2.00
  90  0.500  0.000  0.361-  12 2.03  58 2.04  62 2.07
  91  0.751  0.000  0.361-  58 2.02  59 2.03  63 2.11
  92  0.626  0.191  0.436-  56 2.00  62 2.04  63 2.09
  93  0.866  0.204  0.437-  57 1.92  63 1.94
  94  0.625  0.693  0.313-  58 1.99  61 2.03  60 2.03
  95  0.875  0.692  0.313-  59 1.99  13 2.03  61 2.03
  96  0.745  0.000  0.511-  63 1.79
  97  0.501  0.000  0.511-  62 1.79
 
  LATTYP: Found a simple orthorhombic cell.
 ALAT       =     6.4702430000
 B/A-ratio  =     1.9796060210
 C/A-ratio  =     4.0000000000
  
  Lattice vectors:
  
 A1 = (   0.0000000000,  -6.4702430000,   0.0000000000)
 A2 = ( -12.8085320000,   0.0000000000,   0.0000000000)
 A3 = (   0.0000000000,   0.0000000000, -25.8809720000)


Analysis of symmetry for initial positions (statically):
=====================================================================
 Subroutine PRICEL returns:
 Original cell was already a primitive cell.
 

 Routine SETGRP: Setting up the symmetry group for a 
 simple orthorhombic supercell.


 Subroutine GETGRP returns: Found  2 space group operations
 (whereof  2 operations were pure point group operations)
 out of a pool of  8 trial point group operations.


The static configuration has the point symmetry C_1h.


Analysis of symmetry for dynamics (positions and initial velocities):
=====================================================================
 Subroutine PRICEL returns:
 Original cell was already a primitive cell.
 

 Routine SETGRP: Setting up the symmetry group for a 
 simple orthorhombic supercell.


 Subroutine GETGRP returns: Found  2 space group operations
 (whereof  2 operations were pure point group operations)
 out of a pool of  8 trial point group operations.


The dynamic configuration has the point symmetry C_1h.


Analysis of constrained symmetry for selective dynamics:
=====================================================================
 Subroutine PRICEL returns:
 Original cell was already a primitive cell.
 

 Routine SETGRP: Setting up the symmetry group for a 
 simple orthorhombic supercell.


 Subroutine GETGRP returns: Found  2 space group operations
 (whereof  2 operations were pure point group operations)
 out of a pool of  8 trial point group operations.


The constrained configuration has the point symmetry C_1h.


Analysis of structural, dynamic, and magnetic symmetry:
=====================================================================
 Subroutine PRICEL returns:
 Original cell was already a primitive cell.
 

 Routine SETGRP: Setting up the symmetry group for a 
 simple orthorhombic supercell.


 Subroutine GETGRP returns: Found  2 space group operations
 (whereof  2 operations were pure point group operations)
 out of a pool of  8 trial point group operations.


The magnetic configuration has the point symmetry C_1h.


 Subroutine INISYM returns: Found  2 space group operations
 (whereof  2 operations are pure point group operations),
 and found     1 'primitive' translations

 
 
 KPOINTS: Automatic mesh                          

Automatic generation of k-mesh.
Space group operators:
 irot       det(A)        alpha          n_x          n_y          n_z        tau_x        tau_y        tau_z
    1     1.000000     0.000001     1.000000     0.000000     0.000000     0.000000     0.000000     0.000000
    2    -1.000000   180.000000     0.000000     1.000000     0.000000     0.000000     0.000000     0.000000
 
 Subroutine IBZKPT returns following result:
 ===========================================
 
 Found      4 irreducible k-points:
 
 Following reciprocal coordinates:
            Coordinates               Weight
  0.000000  0.000000  0.000000      1.000000
  0.333333  0.000000  0.000000      2.000000
  0.000000  0.333333  0.000000      2.000000
  0.333333  0.333333  0.000000      4.000000
 
 Following cartesian coordinates:
            Coordinates               Weight
  0.000000  0.000000  0.000000      1.000000
  0.026024  0.000000  0.000000      2.000000
  0.000000  0.051518  0.000000      2.000000
  0.026024  0.051518  0.000000      4.000000
 
 
 Subroutine IBZKPT_HF returns following result:
 ==============================================
 
 Found      9 k-points in 1st BZ
 the following      9 k-points will be used (e.g. in the exchange kernel)
 Following reciprocal coordinates:   # in IRBZ
  0.000000  0.000000  0.000000    0.11111111   1 t-inv F
  0.333333  0.000000  0.000000    0.11111111   2 t-inv F
  0.000000  0.333333  0.000000    0.11111111   3 t-inv F
  0.333333  0.333333  0.000000    0.11111111   4 t-inv F
  0.000000 -0.333333  0.000000    0.11111111   3 t-inv F
  0.333333 -0.333333  0.000000    0.11111111   4 t-inv F
 -0.333333  0.000000  0.000000    0.11111111   2 t-inv T
 -0.333333 -0.333333  0.000000    0.11111111   4 t-inv T
 -0.333333  0.333333  0.000000    0.11111111   4 t-inv T


--------------------------------------------------------------------------------------------------------




 Dimension of arrays:
   k-points           NKPTS =      4   k-points in BZ     NKDIM =      4   number of bands    NBANDS=    440
   number of dos      NEDOS =    301   number of ions     NIONS =     97
   non local maximal  LDIM  =      6   non local SUM 2l+1 LMDIM =     18
   total plane-waves  NPLWV = 362880
   max r-space proj   IRMAX =   2532   max aug-charges    IRDMAX=  12432
   dimension x,y,z NGX =    70 NGY =   36 NGZ =  144
   dimension x,y,z NGXF=   140 NGYF=   72 NGZF=  288
   support grid    NGXF=   140 NGYF=   72 NGZF=  288
   ions per type =              15  32  16  34
   NGX,Y,Z   is equivalent  to a cutoff of   9.09,  9.25,  9.25 a.u.
   NGXF,Y,Z  is equivalent  to a cutoff of  18.17, 18.50, 18.50 a.u.

 SYSTEM =  unknown system                          
 POSCAR =  Ir  O Ir  O                             

 Startparameter for this run:
   NWRITE =      2    write-flag & timer
   PREC   = normal    normal or accurate (medium, high low for compatibility)
   ISTART =      0    job   : 0-new  1-cont  2-samecut
   ICHARG =      2    charge: 1-file 2-atom 10-const
   ISPIN  =      2    spin polarized calculation?
   LNONCOLLINEAR =      F non collinear calculations
   LSORBIT =      F    spin-orbit coupling
   INIWAV =      1    electr: 0-lowe 1-rand  2-diag
   LASPH  =      F    aspherical Exc in radial PAW
   METAGGA=      F    non-selfconsistent MetaGGA calc.

 Electronic Relaxation 1
   ENCUT  =  500.0 eV  36.75 Ry    6.06 a.u.  23.35 11.80 47.19*2*pi/ulx,y,z
   ENINI  =  500.0     initial cutoff
   ENAUG  =  605.4 eV  augmentation charge cutoff
   NELM   =     60;   NELMIN=  4; NELMDL= -5     # of ELM steps 
   EDIFF  = 0.1E-05   stopping-criterion for ELM
   LREAL  =      T    real-space projection
   NLSPLINE    = F    spline interpolate recip. space projectors
   LCOMPAT=      F    compatible to vasp.4.4
   GGA_COMPAT  = T    GGA compatible to vasp.4.4-vasp.4.6
   LMAXPAW     = -100 max onsite density
   LMAXMIX     =    2 max onsite mixed and CHGCAR
   VOSKOWN=      0    Vosko Wilk Nusair interpolation
   ROPT   =   -0.00050  -0.00050  -0.00050  -0.00050
 Ionic relaxation
   EDIFFG = -.5E-01   stopping-criterion for IOM
   NSW    =   1201    number of steps for IOM
   NBLOCK =      1;   KBLOCK =   1201    inner block; outer block 
   IBRION =      5    ionic relax: 0-MD 1-quasi-New 2-CG
   NFREE  =      2    steps in history (QN), initial steepest desc. (CG)
   ISIF   =      2    stress and relaxation
   IWAVPR =     11    prediction:  0-non 1-charg 2-wave 3-comb
   ISYM   =      2    0-nonsym 1-usesym 2-fastsym
   LCORR  =      T    Harris-Foulkes like correction to forces

   POTIM  = 0.5000    time-step for ionic-motion
   TEIN   =    0.0    initial temperature
   TEBEG  =    0.0;   TEEND  =   0.0 temperature during run
   SMASS  =  -3.00    Nose mass-parameter (am)
   estimated Nose-frequenzy (Omega)   =  0.10E-29 period in steps =****** mass=  -0.375E-26a.u.
   SCALEE = 1.0000    scale energy and forces
   NPACO  =    256;   APACO  = 16.0  distance and # of slots for P.C.
   PSTRESS=    0.0 pullay stress

  Mass of Ions in am
   POMASS = 192.22 16.00192.22 16.00
  Ionic Valenz
   ZVAL   =   9.00  6.00  9.00  6.00
  Atomic Wigner-Seitz radii
   RWIGS  =  -1.00 -1.00 -1.00 -1.00
  virtual crystal weights 
   VCA    =   1.00  1.00  1.00  1.00
   NELECT =     675.0000    total number of electrons
   NUPDOWN=      -1.0000    fix difference up-down

 DOS related values:
   EMIN   =  10.00;   EMAX   =-10.00  energy-range for DOS
   EFERMI =   0.00
   ISMEAR =     0;   SIGMA  =   0.05  broadening in eV -4-tet -1-fermi 0-gaus

 Electronic relaxation 2 (details)
   IALGO  =     68    algorithm
   LDIAG  =      T    sub-space diagonalisation (order eigenvalues)
   LSUBROT=      F    optimize rotation matrix (better conditioning)
   TURBO    =      0    0=normal 1=particle mesh
   IRESTART =      0    0=no restart 2=restart with 2 vectors
   NREBOOT  =      0    no. of reboots
   NMIN     =      0    reboot dimension
   EREF     =   0.00    reference energy to select bands
   IMIX   =      4    mixing-type and parameters
     AMIX     =   0.40;   BMIX     =  1.00
     AMIX_MAG =   1.60;   BMIX_MAG =  1.00
     AMIN     =   0.10
     WC   =   100.;   INIMIX=   1;  MIXPRE=   1;  MAXMIX=  60

 Intra band minimization:
   WEIMIN = 0.0010     energy-eigenvalue tresh-hold
   EBREAK =  0.57E-09  absolut break condition
   DEPER  =   0.30     relativ break condition  

   TIME   =   0.40     timestep for ELM

  volume/ion in A,a.u.               =      22.11       149.22
  Fermi-wavevector in a.u.,A,eV,Ry     =   1.113549  2.104302 16.871100  1.239991
  Thomas-Fermi vector in A             =   2.250135
 
 Write flags
   LWAVE        =      F    write WAVECAR
   LDOWNSAMPLE  =      F    k-point downsampling of WAVECAR
   LCHARG       =      F    write CHGCAR
   LVTOT        =      F    write LOCPOT, total local potential
   LVHAR        =      T    write LOCPOT, Hartree potential only
   LELF         =      F    write electronic localiz. function (ELF)
   LORBIT       =      0    0 simple, 1 ext, 2 COOP (PROOUT), +10 PAW based schemes


 Dipole corrections
   LMONO  =      F    monopole corrections only (constant potential shift)
   LDIPOL =      F    correct potential (dipole corrections)
   IDIPOL =      0    1-x, 2-y, 3-z, 4-all directions 
   EPSILON=  1.0000000 bulk dielectric constant

 Exchange correlation treatment:
   GGA     =    RP    GGA type
   LEXCH   =     9    internal setting for exchange type
   VOSKOWN=      0    Vosko Wilk Nusair interpolation
   LHFCALC =     F    Hartree Fock is set to
   LHFONE  =     F    Hartree Fock one center treatment
   AEXX    =    0.0000 exact exchange contribution

 Linear response parameters
   LEPSILON=     F    determine dielectric tensor
   LRPA    =     F    only Hartree local field effects (RPA)
   LNABLA  =     F    use nabla operator in PAW spheres
   LVEL    =     F    velocity operator in full k-point grid
   LINTERFAST=   F  fast interpolation
   KINTER  =     0    interpolate to denser k-point grid
   CSHIFT  =0.1000    complex shift for real part using Kramers Kronig
   OMEGAMAX=  -1.0    maximum frequency
   DEG_THRESHOLD= 0.2000000E-02 threshold for treating states as degnerate
   RTIME   =   -0.100 relaxation time in fs
  (WPLASMAI=    0.000 imaginary part of plasma frequency in eV, 0.658/RTIME)
   DFIELD  = 0.0000000 0.0000000 0.0000000 field for delta impulse in time
 
 Orbital magnetization related:
   ORBITALMAG=     F  switch on orbital magnetization
   LCHIMAG   =     F  perturbation theory with respect to B field
   DQ        =  0.001000  dq finite difference perturbation B field
   LLRAUG    =     F  two centre corrections for induced B field



--------------------------------------------------------------------------------------------------------


 finite differences
   using selective dynamics as specified on POSCAR
   WARNING: If single coordinates had been selected the selection of coordinates
            is made according to the corresponding   d i r e c t   coordinates!
            Don't support selection of single cartesian coordinates -- sorry ...
  !
 charge density and potential will be updated during run
 spin polarized calculation
 RMM-DIIS sequential band-by-band and
  variant of blocked Davidson during initial phase
 perform sub-space diagonalisation
    before iterative eigenvector-optimisation
 modified Broyden-mixing scheme, WC =      100.0
 initial mixing is a Kerker type mixing with AMIX =  0.4000 and BMIX =      1.0000
 Hartree-type preconditioning will be used
 using additional bands          102
 real space projection scheme for non local part
 use partial core corrections
 calculate Harris-corrections to forces 
   (improved forces if not selfconsistent)
 use gradient corrections 
 use of overlap-Matrix (Vanderbilt PP)
 Gauss-broadening in eV      SIGMA  =   0.05


--------------------------------------------------------------------------------------------------------


  energy-cutoff  :      500.00
  volume of cell :     2144.87
      direct lattice vectors                 reciprocal lattice vectors
    12.808532000  0.000000000  0.000000000     0.078072959  0.000000000  0.000000000
     0.000000000  6.470243000  0.000000000     0.000000000  0.154553701  0.000000000
     0.000000000  0.000000000 25.880972000     0.000000000  0.000000000  0.038638425

  length of vectors
    12.808532000  6.470243000 25.880972000     0.078072959  0.154553701  0.038638425


 
 k-points in units of 2pi/SCALE and weight: Automatic mesh                          
   0.00000000  0.00000000  0.00000000       0.111
   0.02602432  0.00000000  0.00000000       0.222
   0.00000000  0.05151790  0.00000000       0.222
   0.02602432  0.05151790  0.00000000       0.444
 
 k-points in reciprocal lattice and weights: Automatic mesh                          
   0.00000000  0.00000000  0.00000000       0.111
   0.33333333  0.00000000  0.00000000       0.222
   0.00000000  0.33333333  0.00000000       0.222
   0.33333333  0.33333333  0.00000000       0.444
 
 position of ions in fractional coordinates (direct lattice) 
   0.12500000  0.50000000  0.18750000
   0.37500000  0.50000000  0.18750000
   0.12500000  0.00000000  0.06250000
   0.37500000  0.00000000  0.06250000
   0.00000000  0.50000000  0.06250000
   0.25000000  0.50000000  0.06250000
   0.00000000  0.00000000  0.18750000
   0.25000000  0.00000000  0.18750000
   0.12655966  0.50000000  0.44023400
   0.37535967  0.50000000  0.43887892
   0.12187418  0.00000000  0.31203279
   0.37654345  0.00000000  0.31237437
   0.99989604  0.50000000  0.31351050
   0.24994485  0.50000000  0.31324140
   0.24271490  0.00000000  0.43450802
   0.00000000  0.50000000  0.13961000
   0.25000000  0.50000000  0.13961000
   0.00000000  0.00000000  0.01461000
   0.25000000  0.00000000  0.01461000
   0.12500000  0.80844000  0.18750000
   0.37500000  0.80844000  0.18750000
   0.12500000  0.30844000  0.06250000
   0.37500000  0.30844000  0.06250000
   0.00000000  0.50000000  0.23539000
   0.25000000  0.50000000  0.23539000
   0.00000000  0.00000000  0.11039000
   0.25000000  0.00000000  0.11039000
   0.12500000  0.19156000  0.18750000
   0.37500000  0.19156000  0.18750000
   0.12500000  0.69156000  0.06250000
   0.37500000  0.69156000  0.06250000
   0.00034019  0.50000000  0.39066552
   0.25103963  0.50000000  0.39030849
   0.99973423  0.00000000  0.26384404
   0.25072074  0.00000000  0.26457432
   0.13706789  0.79445192  0.44259081
   0.37207593  0.80949318  0.43777328
   0.12441115  0.30815012  0.31273240
   0.37542740  0.30803868  0.31275644
   0.99872657  0.50000000  0.48504615
   0.25489050  0.50000000  0.48642469
   0.00052436  0.00000000  0.35789335
   0.24951976  0.00000000  0.35898304
   0.13706789  0.20554808  0.44259081
   0.37207593  0.19050682  0.43777328
   0.12441115  0.69184988  0.31273240
   0.37542740  0.69196132  0.31275644
   0.62500000  0.50000000  0.18750000
   0.87500000  0.50000000  0.18750000
   0.62500000  0.00000000  0.06250000
   0.87500000  0.00000000  0.06250000
   0.50000000  0.50000000  0.06250000
   0.75000000  0.50000000  0.06250000
   0.50000000  0.00000000  0.18750000
   0.75000000  0.00000000  0.18750000
   0.62429472  0.50000000  0.43807394
   0.87389868  0.50000000  0.43946384
   0.62567141  0.00000000  0.31297162
   0.87680397  0.00000000  0.31254077
   0.50011889  0.50000000  0.31304495
   0.74990427  0.50000000  0.31300814
   0.49930500  0.00000000  0.44139273
   0.75626341  0.00000000  0.44216541
   0.50000000  0.50000000  0.13961000
   0.75000000  0.50000000  0.13961000
   0.50000000  0.00000000  0.01461000
   0.75000000  0.00000000  0.01461000
   0.62500000  0.80844000  0.18750000
   0.87500000  0.80844000  0.18750000
   0.62500000  0.30844000  0.06250000
   0.87500000  0.30844000  0.06250000
   0.50000000  0.50000000  0.23539000
   0.75000000  0.50000000  0.23539000
   0.50000000  0.00000000  0.11039000
   0.75000000  0.00000000  0.11039000
   0.62500000  0.19156000  0.18750000
   0.87500000  0.19156000  0.18750000
   0.62500000  0.69156000  0.06250000
   0.87500000  0.69156000  0.06250000
   0.49951880  0.50000000  0.38969606
   0.74777932  0.50000000  0.38963809
   0.50072467  0.00000000  0.26467808
   0.74958122  0.00000000  0.26479526
   0.62577163  0.80886542  0.43558323
   0.86638114  0.79582285  0.43650759
   0.62501999  0.30748109  0.31257142
   0.87520588  0.30752655  0.31252654
   0.50094497  0.50000000  0.48367243
   0.74727635  0.50000000  0.48475739
   0.49996086  0.00000000  0.36130834
   0.75113938  0.00000000  0.36051606
   0.62577163  0.19113458  0.43558323
   0.86638114  0.20417715  0.43650759
   0.62501999  0.69251891  0.31257142
   0.87520588  0.69247345  0.31252654
   0.74451430  0.00000000  0.51097693
   0.50103077  0.00000000  0.51063940
 
 position of ions in cartesian coordinates  (Angst):
   1.60106650  3.23512150  4.85268225
   4.80319950  3.23512150  4.85268225
   1.60106650  0.00000000  1.61756075
   4.80319950  0.00000000  1.61756075
   0.00000000  3.23512150  1.61756075
   3.20213300  3.23512150  1.61756075
   0.00000000  0.00000000  4.85268225
   3.20213300  0.00000000  4.85268225
   1.62104349  3.23512150 11.39368388
   4.80780638  3.23512150 11.35861310
   1.56102928  0.00000000  8.07571197
   4.82296878  0.00000000  8.08455230
  12.80720042  3.23512150  8.11395653
   3.20142665  3.23512150  8.10699189
   3.10882151  0.00000000 11.24548980
   0.00000000  3.23512150  3.61324250
   3.20213300  3.23512150  3.61324250
   0.00000000  0.00000000  0.37812100
   3.20213300  0.00000000  0.37812100
   1.60106650  5.23080325  4.85268225
   4.80319950  5.23080325  4.85268225
   1.60106650  1.99568175  1.61756075
   4.80319950  1.99568175  1.61756075
   0.00000000  3.23512150  6.09212200
   3.20213300  3.23512150  6.09212200
   0.00000000  0.00000000  2.85700050
   3.20213300  0.00000000  2.85700050
   1.60106650  1.23943975  4.85268225
   4.80319950  1.23943975  4.85268225
   1.60106650  4.47456125  1.61756075
   4.80319950  4.47456125  1.61756075
   0.00435735  3.23512150 10.11080345
   3.21544915  3.23512150 10.10156306
  12.80512792  0.00000000  6.82854013
   3.21136468  0.00000000  6.84744064
   1.75563847  5.14029699 11.45468024
   4.76574641  5.23761760 11.32999802
   1.59352419  1.99380617  8.09381838
   4.80867385  1.99308511  8.09444068
  12.79222127  3.23512150 12.55346574
   3.26477313  3.23512150 12.58914384
   0.00671632  0.00000000  9.26262778
   3.19598179  0.00000000  9.29083006
   1.75563847  1.32994601 11.45468024
   4.76574641  1.23262540 11.32999802
   1.59352419  4.47643683  8.09381838
   4.80867385  4.47715789  8.09444068
   8.00533250  3.23512150  4.85268225
  11.20746550  3.23512150  4.85268225
   8.00533250  0.00000000  1.61756075
  11.20746550  0.00000000  1.61756075
   6.40426600  3.23512150  1.61756075
   9.60639900  3.23512150  1.61756075
   6.40426600  0.00000000  4.85268225
   9.60639900  0.00000000  4.85268225
   7.99629891  3.23512150 11.33777928
  11.19335926  3.23512150 11.37375121
   8.01393232  0.00000000  8.10000981
  11.23057166  0.00000000  8.08885888
   6.40578886  3.23512150  8.10190756
   9.60517287  3.23512150  8.10095496
   6.39536413  0.00000000 11.42367300
   9.68662415  0.00000000 11.44367052
   6.40426600  3.23512150  3.61324250
   9.60639900  3.23512150  3.61324250
   6.40426600  0.00000000  0.37812100
   9.60639900  0.00000000  0.37812100
   8.00533250  5.23080325  4.85268225
  11.20746550  5.23080325  4.85268225
   8.00533250  1.99568175  1.61756075
  11.20746550  1.99568175  1.61756075
   6.40426600  3.23512150  6.09212200
   9.60639900  3.23512150  6.09212200
   6.40426600  0.00000000  2.85700050
   9.60639900  0.00000000  2.85700050
   8.00533250  1.23943975  4.85268225
  11.20746550  1.23943975  4.85268225
   8.00533250  4.47456125  1.61756075
  11.20746550  4.47456125  1.61756075
   6.39810249  3.23512150 10.08571283
   9.57795529  3.23512150 10.08421262
   6.41354793  0.00000000  6.85012593
   9.60103507  0.00000000  6.85315864
   8.01521598  5.23355580 11.27331729
  11.09707058  5.14916723 11.29724076
   8.00558849  1.98947734  8.08965211
  11.21010258  1.98977152  8.08849057
   6.41636974  3.23512150 12.51791258
   9.57151306  3.23512150 12.54599251
   6.40376466  0.00000000  9.35101112
   9.62099275  0.00000000  9.33050601
   8.01521598  1.23668720 11.27331729
  11.09707058  1.32107577 11.29724076
   8.00558849  4.48076566  8.08965211
  11.21010258  4.48047148  8.08849057
   9.53613526  0.00000000 13.22457958
   6.41746865  0.00000000 13.21584396
 


--------------------------------------------------------------------------------------------------------


 k-point  1 :   0.0000 0.0000 0.0000  plane waves:   54455
 k-point  2 :   0.3333 0.0000 0.0000  plane waves:   54459
 k-point  3 :   0.0000 0.3333 0.0000  plane waves:   54468
 k-point  4 :   0.3333 0.3333 0.0000  plane waves:   54434

 maximum and minimum number of plane-waves per node :     54468    54434

 maximum number of plane-waves:     54468
 maximum index in each direction: 
   IXMAX=   23   IYMAX=   11   IZMAX=   47
   IXMIN=  -23   IYMIN=  -12   IZMIN=  -47


 serial   3D FFT for wavefunctions
 parallel 3D FFT for charge:
    minimum data exchange during FFTs selected (reduces bandwidth)


 total amount of memory used by VASP MPI-rank0   171852. kBytes
=======================================================================

   base      :      30000. kBytes
   nonlr-proj:      19236. kBytes
   fftplans  :       4196. kBytes
   grid      :      37119. kBytes
   one-center:       3017. kBytes
   wavefun   :      78284. kBytes
 
     INWAV:  cpu time    0.0000: real time    0.0004
 Broyden mixing: mesh for mixing (old mesh)
   NGX = 47   NGY = 23   NGZ = 95
  (NGX  =140   NGY  = 72   NGZ  =288)
  gives a total of 102695 points

 initial charge density was supplied:
 charge density of overlapping atoms calculated
 number of electron     675.0000000 magnetization      58.2000000
 keeping initial charge density in first step


--------------------------------------------------------------------------------------------------------


 Maximum index for non-local projection operator         2429
 Maximum index for augmentation-charges          641 (set IRDMAX)


--------------------------------------------------------------------------------------------------------


 First call to EWALD:  gamma=   0.137
 Maximum number of real-space cells 3x 5x 2
 Maximum number of reciprocal cells 3x 2x 5

    FEWALD:  cpu time    0.0043: real time    0.0044


--------------------------------------- Iteration      1(   1)  ---------------------------------------


    POTLOK:  cpu time    0.1269: real time    0.1674
    SETDIJ:  cpu time    0.0166: real time    0.0311
     EDDAV:  cpu time   13.1607: real time   13.4894
       DOS:  cpu time    0.0011: real time    0.0249
    --------------------------------------------
      LOOP:  cpu time   13.3053: real time   13.7128

 eigenvalue-minimisations  :  7040
 total energy-change (2. order) : 0.7335527E+04  (-0.3040420E+05)
 number of electron     675.0000000 magnetization      58.2000000
 augmentation part      675.0000000 magnetization      58.2000000

 Free energy of the ion-electron system (eV)
  ---------------------------------------------------
  alpha Z        PSCENC =      1717.01503502
  Ewald energy   TEWEN  =    226780.36082219
  -Hartree energ DENC   =   -272105.83109677
  -exchange      EXHF   =         0.00000000
  -V(xc)+E(xc)   XCENC  =      1272.67650256
  PAW double counting   =     40003.38402717   -38825.35607587
  entropy T*S    EENTRO =        -0.05322933
  eigenvalues    EBANDS =      2619.30130939
  atomic energy  EATOM  =     45874.02969909
  Solvation  Ediel_sol  =         0.00000000
  ---------------------------------------------------
  free energy    TOTEN  =      7335.52699346 eV

  energy without entropy =     7335.58022279  energy(sigma->0) =     7335.55360812


--------------------------------------------------------------------------------------------------------




--------------------------------------- Iteration      1(   2)  ---------------------------------------


     EDDAV:  cpu time   13.6222: real time   13.6703
       DOS:  cpu time    0.0008: real time    0.0008
    --------------------------------------------
      LOOP:  cpu time   13.6230: real time   13.6710

 eigenvalue-minimisations  :  7360
 total energy-change (2. order) :-0.6891717E+04  (-0.6348974E+04)
 number of electron     675.0000000 magnetization      58.2000000
 augmentation part      675.0000000 magnetization      58.2000000

 Free energy of the ion-electron system (eV)
  ---------------------------------------------------
  alpha Z        PSCENC =      1717.01503502
  Ewald energy   TEWEN  =    226780.36082219
  -Hartree energ DENC   =   -272105.83109677
  -exchange      EXHF   =         0.00000000
  -V(xc)+E(xc)   XCENC  =      1272.67650256
  PAW double counting   =     40003.38402717   -38825.35607587
  entropy T*S    EENTRO =        -0.05447074
  eigenvalues    EBANDS =     -4272.41438185
  atomic energy  EATOM  =     45874.02969909
  Solvation  Ediel_sol  =         0.00000000
  ---------------------------------------------------
  free energy    TOTEN  =       443.81006080 eV

  energy without entropy =      443.86453155  energy(sigma->0) =      443.83729617


--------------------------------------------------------------------------------------------------------




--------------------------------------- Iteration      1(   3)  ---------------------------------------


     EDDAV:  cpu time   17.2471: real time   17.3144
       DOS:  cpu time    0.0007: real time    0.0007
    --------------------------------------------
      LOOP:  cpu time   17.2478: real time   17.3152

 eigenvalue-minimisations  :  9760
 total energy-change (2. order) :-0.1150185E+04  (-0.1108972E+04)
 number of electron     675.0000000 magnetization      58.2000000
 augmentation part      675.0000000 magnetization      58.2000000

 Free energy of the ion-electron system (eV)
  ---------------------------------------------------
  alpha Z        PSCENC =      1717.01503502
  Ewald energy   TEWEN  =    226780.36082219
  -Hartree energ DENC   =   -272105.83109677
  -exchange      EXHF   =         0.00000000
  -V(xc)+E(xc)   XCENC  =      1272.67650256
  PAW double counting   =     40003.38402717   -38825.35607587
  entropy T*S    EENTRO =        -0.06203894
  eigenvalues    EBANDS =     -5422.59184446
  atomic energy  EATOM  =     45874.02969909
  Solvation  Ediel_sol  =         0.00000000
  ---------------------------------------------------
  free energy    TOTEN  =      -706.37497001 eV

  energy without entropy =     -706.31293107  energy(sigma->0) =     -706.34395054


--------------------------------------------------------------------------------------------------------




--------------------------------------- Iteration      1(   4)  ---------------------------------------


     EDDAV:  cpu time   15.4617: real time   15.5128
       DOS:  cpu time    0.0007: real time    0.0007
    --------------------------------------------
      LOOP:  cpu time   15.4624: real time   15.5134

 eigenvalue-minimisations  :  8600
 total energy-change (2. order) :-0.4854879E+02  (-0.4764445E+02)
 number of electron     675.0000000 magnetization      58.2000000
 augmentation part      675.0000000 magnetization      58.2000000

 Free energy of the ion-electron system (eV)
  ---------------------------------------------------
  alpha Z        PSCENC =      1717.01503502
  Ewald energy   TEWEN  =    226780.36082219
  -Hartree energ DENC   =   -272105.83109677
  -exchange      EXHF   =         0.00000000
  -V(xc)+E(xc)   XCENC  =      1272.67650256
  PAW double counting   =     40003.38402717   -38825.35607587
  entropy T*S    EENTRO =        -0.06809409
  eigenvalues    EBANDS =     -5471.13457881
  atomic energy  EATOM  =     45874.02969909
  Solvation  Ediel_sol  =         0.00000000
  ---------------------------------------------------
  free energy    TOTEN  =      -754.92375951 eV

  energy without entropy =     -754.85566542  energy(sigma->0) =     -754.88971246


--------------------------------------------------------------------------------------------------------




--------------------------------------- Iteration      1(   5)  ---------------------------------------


     EDDAV:  cpu time   15.7265: real time   15.7768
       DOS:  cpu time    0.0007: real time    0.0007
    CHARGE:  cpu time    0.6208: real time    0.6230
    MIXING:  cpu time    0.0029: real time    0.0114
    --------------------------------------------
      LOOP:  cpu time   16.3509: real time   16.4120

 eigenvalue-minimisations  :  8760
 total energy-change (2. order) :-0.1364708E+01  (-0.1359468E+01)
 number of electron     675.0000459 magnetization      54.3167048
 augmentation part      115.5782839 magnetization      45.9404499

 Broyden mixing:
  rms(total) = 0.17510E+02    rms(broyden)= 0.17509E+02
  rms(prec ) = 0.17746E+02
  weight for this iteration     100.00

 Free energy of the ion-electron system (eV)
  ---------------------------------------------------
  alpha Z        PSCENC =      1717.01503502
  Ewald energy   TEWEN  =    226780.36082219
  -Hartree energ DENC   =   -272105.83109677
  -exchange      EXHF   =         0.00000000
  -V(xc)+E(xc)   XCENC  =      1272.67650256
  PAW double counting   =     40003.38402717   -38825.35607587
  entropy T*S    EENTRO =        -0.06858476
  eigenvalues    EBANDS =     -5472.49879652
  atomic energy  EATOM  =     45874.02969909
  Solvation  Ediel_sol  =         0.00000000
  ---------------------------------------------------
  free energy    TOTEN  =      -756.28846788 eV

  energy without entropy =     -756.21988312  energy(sigma->0) =     -756.25417550


--------------------------------------------------------------------------------------------------------




--------------------------------------- Iteration      1(   6)  ---------------------------------------


    POTLOK:  cpu time    0.0927: real time    0.0959
    SETDIJ:  cpu time    0.0160: real time    0.0160
    EDDIAG:  cpu time    2.6051: real time    2.6269
  RMM-DIIS:  cpu time    7.3691: real time    7.3939
    ORTHCH:  cpu time    0.5817: real time    0.5834
       DOS:  cpu time    0.0007: real time    0.0007
    CHARGE:  cpu time    0.6139: real time    0.6154
    MIXING:  cpu time    0.0024: real time    0.0025
    --------------------------------------------
      LOOP:  cpu time   11.2816: real time   11.3348

 eigenvalue-minimisations  :  7063
 total energy-change (2. order) : 0.1239816E+03  (-0.7238350E+02)
 number of electron     675.0000450 magnetization      51.1268457
 augmentation part      126.9559889 magnetization      42.6681710

 Broyden mixing:
  rms(total) = 0.11739E+02    rms(broyden)= 0.11736E+02
  rms(prec ) = 0.12553E+02
  weight for this iteration     100.00

 eigenvalues of (default mixing * dielectric matrix)
  average eigenvalue GAMMA=   0.8917
  0.8917

 Free energy of the ion-electron system (eV)
  ---------------------------------------------------
  alpha Z        PSCENC =      1717.01503502
  Ewald energy   TEWEN  =    226780.36082219
  -Hartree energ DENC   =   -272333.04723095
  -exchange      EXHF   =         0.00000000
  -V(xc)+E(xc)   XCENC  =      1355.78008026
  PAW double counting   =     47817.72811033   -46704.27443997
  entropy T*S    EENTRO =        -0.07353782
  eigenvalues    EBANDS =     -5139.82543776
  atomic energy  EATOM  =     45874.02969909
  Solvation  Ediel_sol  =         0.00000000
  ---------------------------------------------------
  free energy    TOTEN  =      -632.30689961 eV

  energy without entropy =     -632.23336179  energy(sigma->0) =     -632.27013070


--------------------------------------------------------------------------------------------------------




--------------------------------------- Iteration      1(   7)  ---------------------------------------


    POTLOK:  cpu time    0.0931: real time    0.1013
    SETDIJ:  cpu time    0.0161: real time    0.0162
    EDDIAG:  cpu time    2.6086: real time    2.6158
  RMM-DIIS:  cpu time    7.6350: real time    7.6611
    ORTHCH:  cpu time    0.5816: real time    0.5831
       DOS:  cpu time    0.0007: real time    0.0007
    CHARGE:  cpu time    0.6159: real time    0.6176
    MIXING:  cpu time    0.0024: real time    0.0024
    --------------------------------------------
      LOOP:  cpu time   11.5533: real time   11.5982

 eigenvalue-minimisations  :  7293
 total energy-change (2. order) :-0.3974717E+03  (-0.3484876E+02)
 number of electron     675.0000389 magnetization      50.5212971
 augmentation part      119.2346636 magnetization      38.4979508

 Broyden mixing:
  rms(total) = 0.31799E+02    rms(broyden)= 0.31798E+02
  rms(prec ) = 0.35101E+02
  weight for this iteration     100.00

 eigenvalues of (default mixing * dielectric matrix)
  average eigenvalue GAMMA=   0.4859
  0.9370  0.0348

 Free energy of the ion-electron system (eV)
  ---------------------------------------------------
  alpha Z        PSCENC =      1717.01503502
  Ewald energy   TEWEN  =    226780.36082219
  -Hartree energ DENC   =   -273221.21021980
  -exchange      EXHF   =         0.00000000
  -V(xc)+E(xc)   XCENC  =      1329.56185047
  PAW double counting   =     52549.20272244   -51440.18124893
  entropy T*S    EENTRO =        -0.05982117
  eigenvalues    EBANDS =     -4618.49739567
  atomic energy  EATOM  =     45874.02969909
  Solvation  Ediel_sol  =         0.00000000
  ---------------------------------------------------
  free energy    TOTEN  =     -1029.77855636 eV

  energy without entropy =    -1029.71873518  energy(sigma->0) =    -1029.74864577


--------------------------------------------------------------------------------------------------------




--------------------------------------- Iteration      1(   8)  ---------------------------------------


    POTLOK:  cpu time    0.0921: real time    0.0928
    SETDIJ:  cpu time    0.0159: real time    0.0159
    EDDIAG:  cpu time    2.6038: real time    2.6112
  RMM-DIIS:  cpu time    7.4064: real time    7.4283
    ORTHCH:  cpu time    0.5809: real time    0.5823
       DOS:  cpu time    0.0007: real time    0.0007
    CHARGE:  cpu time    0.6161: real time    0.6177
    MIXING:  cpu time    0.0027: real time    0.0193
    --------------------------------------------
      LOOP:  cpu time   11.3187: real time   11.3682

 eigenvalue-minimisations  :  7113
 total energy-change (2. order) : 0.1843554E+03  (-0.3002320E+01)
 number of electron     675.0000399 magnetization      48.9546645
 augmentation part      119.7415589 magnetization      38.6071170

 Broyden mixing:
  rms(total) = 0.24264E+02    rms(broyden)= 0.24264E+02
  rms(prec ) = 0.27035E+02
  weight for this iteration     100.00

 eigenvalues of (default mixing * dielectric matrix)
  average eigenvalue GAMMA=   0.4899
  0.9466  0.2615  0.2615

 Free energy of the ion-electron system (eV)
  ---------------------------------------------------
  alpha Z        PSCENC =      1717.01503502
  Ewald energy   TEWEN  =    226780.36082219
  -Hartree energ DENC   =   -273192.77073790
  -exchange      EXHF   =         0.00000000
  -V(xc)+E(xc)   XCENC  =      1328.70840878
  PAW double counting   =     53676.43890664   -52568.93431436
  entropy T*S    EENTRO =        -0.06185552
  eigenvalues    EBANDS =     -4460.20914285
  atomic energy  EATOM  =     45874.02969909
  Solvation  Ediel_sol  =         0.00000000
  ---------------------------------------------------
  free energy    TOTEN  =      -845.42317890 eV

  energy without entropy =     -845.36132339  energy(sigma->0) =     -845.39225115


--------------------------------------------------------------------------------------------------------




--------------------------------------- Iteration      1(   9)  ---------------------------------------


    POTLOK:  cpu time    0.0915: real time    0.0921
    SETDIJ:  cpu time    0.0161: real time    0.0162
    EDDIAG:  cpu time    2.6071: real time    2.6151
  RMM-DIIS:  cpu time    7.3770: real time    7.3964
    ORTHCH:  cpu time    0.5815: real time    0.5830
       DOS:  cpu time    0.0007: real time    0.0007
    CHARGE:  cpu time    0.6117: real time    0.6132
    MIXING:  cpu time    0.0028: real time    0.0028
    --------------------------------------------
      LOOP:  cpu time   11.2885: real time   11.3194

 eigenvalue-minimisations  :  7040
 total energy-change (2. order) : 0.8534077E+02  (-0.9564266E+01)
 number of electron     675.0000428 magnetization      46.1739774
 augmentation part      120.5945022 magnetization      40.5093588

 Broyden mixing:
  rms(total) = 0.19432E+02    rms(broyden)= 0.19431E+02
  rms(prec ) = 0.21790E+02
  weight for this iteration     100.00

 eigenvalues of (default mixing * dielectric matrix)
  average eigenvalue GAMMA=   0.5610
  1.4027  0.3792  0.2310  0.2310

 Free energy of the ion-electron system (eV)
  ---------------------------------------------------
  alpha Z        PSCENC =      1717.01503502
  Ewald energy   TEWEN  =    226780.36082219
  -Hartree energ DENC   =   -272394.12886837
  -exchange      EXHF   =         0.00000000
  -V(xc)+E(xc)   XCENC  =      1332.31241535
  PAW double counting   =     54480.45494930   -53379.65432224
  entropy T*S    EENTRO =        -0.05490138
  eigenvalues    EBANDS =     -5170.41723902
  atomic energy  EATOM  =     45874.02969909
  Solvation  Ediel_sol  =         0.00000000
  ---------------------------------------------------
  free energy    TOTEN  =      -760.08241005 eV

  energy without entropy =     -760.02750867  energy(sigma->0) =     -760.05495936


--------------------------------------------------------------------------------------------------------




--------------------------------------- Iteration      1(  10)  ---------------------------------------


    POTLOK:  cpu time    0.0930: real time    0.0949
    SETDIJ:  cpu time    0.0162: real time    0.0163
    EDDIAG:  cpu time    2.6172: real time    2.6283
  RMM-DIIS:  cpu time    7.4136: real time    7.4334
    ORTHCH:  cpu time    0.5815: real time    0.5829
       DOS:  cpu time    0.0007: real time    0.0007
    CHARGE:  cpu time    0.6108: real time    0.6136
    MIXING:  cpu time    0.0030: real time    0.0030
    --------------------------------------------
      LOOP:  cpu time   11.3360: real time   11.3730

 eigenvalue-minimisations  :  7123
 total energy-change (2. order) :-0.3662165E+01  (-0.8338232E+01)
 number of electron     675.0000495 magnetization      44.6391722
 augmentation part      120.9279634 magnetization      38.6124423

 Broyden mixing:
  rms(total) = 0.15656E+02    rms(broyden)= 0.15655E+02
  rms(prec ) = 0.18236E+02
  weight for this iteration     100.00

 eigenvalues of (default mixing * dielectric matrix)
  average eigenvalue GAMMA=   0.5263
  1.6446  0.4394  0.2203  0.2203  0.1069

 Free energy of the ion-electron system (eV)
  ---------------------------------------------------
  alpha Z        PSCENC =      1717.01503502
  Ewald energy   TEWEN  =    226780.36082219
  -Hartree energ DENC   =   -272640.56423480
  -exchange      EXHF   =         0.00000000
  -V(xc)+E(xc)   XCENC  =      1337.76913613
  PAW double counting   =     57003.99239844   -55914.77718805
  entropy T*S    EENTRO =        -0.04719191
  eigenvalues    EBANDS =     -4921.52305142
  atomic energy  EATOM  =     45874.02969909
  Solvation  Ediel_sol  =         0.00000000
  ---------------------------------------------------
  free energy    TOTEN  =      -763.74457530 eV

  energy without entropy =     -763.69738339  energy(sigma->0) =     -763.72097934


--------------------------------------------------------------------------------------------------------




--------------------------------------- Iteration      1(  11)  ---------------------------------------


    POTLOK:  cpu time    0.0938: real time    0.0954
    SETDIJ:  cpu time    0.0162: real time    0.0162
    EDDIAG:  cpu time    2.6156: real time    2.6221
  RMM-DIIS:  cpu time    7.6577: real time    7.6802
    ORTHCH:  cpu time    0.5817: real time    0.5832
       DOS:  cpu time    0.0007: real time    0.0007
    CHARGE:  cpu time    0.6105: real time    0.6120
    MIXING:  cpu time    0.0032: real time    0.0032
    --------------------------------------------
      LOOP:  cpu time   11.5794: real time   11.6130

 eigenvalue-minimisations  :  7308
 total energy-change (2. order) : 0.8999618E+02  (-0.1167432E+01)
 number of electron     675.0000496 magnetization      42.0389873
 augmentation part      119.7606065 magnetization      36.7982046

 Broyden mixing:
  rms(total) = 0.10839E+02    rms(broyden)= 0.10838E+02
  rms(prec ) = 0.13188E+02
  weight for this iteration     100.00

 eigenvalues of (default mixing * dielectric matrix)
  average eigenvalue GAMMA=   0.5637
  1.8276  0.4245  0.4245  0.2708  0.2708  0.1640

 Free energy of the ion-electron system (eV)
  ---------------------------------------------------
  alpha Z        PSCENC =      1717.01503502
  Ewald energy   TEWEN  =    226780.36082219
  -Hartree energ DENC   =   -272622.36782065
  -exchange      EXHF   =         0.00000000
  -V(xc)+E(xc)   XCENC  =      1339.16449230
  PAW double counting   =     58747.30924871   -57665.40415208
  entropy T*S    EENTRO =        -0.03070630
  eigenvalues    EBANDS =     -4843.82501494
  atomic energy  EATOM  =     45874.02969909
  Solvation  Ediel_sol  =         0.00000000
  ---------------------------------------------------
  free energy    TOTEN  =      -673.74839667 eV

  energy without entropy =     -673.71769036  energy(sigma->0) =     -673.73304352


--------------------------------------------------------------------------------------------------------




--------------------------------------- Iteration      1(  12)  ---------------------------------------


    POTLOK:  cpu time    0.0923: real time    0.0928
    SETDIJ:  cpu time    0.0161: real time    0.0161
    EDDIAG:  cpu time    2.6054: real time    2.6126
  RMM-DIIS:  cpu time    7.3635: real time    7.3851
    ORTHCH:  cpu time    0.5821: real time    0.5836
       DOS:  cpu time    0.0007: real time    0.0007
    CHARGE:  cpu time    0.6134: real time    0.6150
    MIXING:  cpu time    0.0033: real time    0.0033
    --------------------------------------------
      LOOP:  cpu time   11.2768: real time   11.3092

 eigenvalue-minimisations  :  7042
 total energy-change (2. order) : 0.7623811E+02  (-0.3887133E+01)
 number of electron     675.0000438 magnetization      40.9031003
 augmentation part      121.4892683 magnetization      34.6552527

 Broyden mixing:
  rms(total) = 0.50377E+01    rms(broyden)= 0.50361E+01
  rms(prec ) = 0.54419E+01
  weight for this iteration     100.00

 eigenvalues of (default mixing * dielectric matrix)
  average eigenvalue GAMMA=   0.5359
  1.7867  0.5318  0.2815  0.2815  0.3518  0.3518  0.1663

 Free energy of the ion-electron system (eV)
  ---------------------------------------------------
  alpha Z        PSCENC =      1717.01503502
  Ewald energy   TEWEN  =    226780.36082219
  -Hartree energ DENC   =   -272621.93506800
  -exchange      EXHF   =         0.00000000
  -V(xc)+E(xc)   XCENC  =      1343.94949225
  PAW double counting   =     60191.40060500   -59117.49871344
  entropy T*S    EENTRO =        -0.06226546
  eigenvalues    EBANDS =     -4764.76989715
  atomic energy  EATOM  =     45874.02969909
  Solvation  Ediel_sol  =         0.00000000
  ---------------------------------------------------
  free energy    TOTEN  =      -597.51029050 eV

  energy without entropy =     -597.44802505  energy(sigma->0) =     -597.47915777


--------------------------------------------------------------------------------------------------------




--------------------------------------- Iteration      1(  13)  ---------------------------------------


    POTLOK:  cpu time    0.0930: real time    0.1026
    SETDIJ:  cpu time    0.0161: real time    0.0162
    EDDIAG:  cpu time    2.6018: real time    2.6084
  RMM-DIIS:  cpu time    7.3497: real time    7.3711
    ORTHCH:  cpu time    0.5842: real time    0.5856
       DOS:  cpu time    0.0007: real time    0.0007
    CHARGE:  cpu time    0.6142: real time    0.6158
    MIXING:  cpu time    0.0034: real time    0.0034
    --------------------------------------------
      LOOP:  cpu time   11.2632: real time   11.3038

 eigenvalue-minimisations  :  7055
 total energy-change (2. order) : 0.1108854E+02  (-0.1452593E+01)
 number of electron     675.0000458 magnetization      39.7563924
 augmentation part      121.2037064 magnetization      32.5795413

 Broyden mixing:
  rms(total) = 0.36658E+01    rms(broyden)= 0.36645E+01
  rms(prec ) = 0.38731E+01
  weight for this iteration     100.00

 eigenvalues of (default mixing * dielectric matrix)
  average eigenvalue GAMMA=   0.5220
  1.8448  0.5132  0.4399  0.4399  0.2593  0.2593  0.2533  0.1662

 Free energy of the ion-electron system (eV)
  ---------------------------------------------------
  alpha Z        PSCENC =      1717.01503502
  Ewald energy   TEWEN  =    226780.36082219
  -Hartree energ DENC   =   -272528.02592365
  -exchange      EXHF   =         0.00000000
  -V(xc)+E(xc)   XCENC  =      1341.43513978
  PAW double counting   =     60190.51671217   -59117.63883346
  entropy T*S    EENTRO =        -0.07464236
  eigenvalues    EBANDS =     -4844.03976356
  atomic energy  EATOM  =     45874.02969909
  Solvation  Ediel_sol  =         0.00000000
  ---------------------------------------------------
  free energy    TOTEN  =      -586.42175478 eV

  energy without entropy =     -586.34711242  energy(sigma->0) =     -586.38443360


--------------------------------------------------------------------------------------------------------




--------------------------------------- Iteration      1(  14)  ---------------------------------------


    POTLOK:  cpu time    0.0924: real time    0.0929
    SETDIJ:  cpu time    0.0160: real time    0.0161
    EDDIAG:  cpu time    2.6001: real time    2.6081
  RMM-DIIS:  cpu time    7.3508: real time    7.3771
    ORTHCH:  cpu time    0.5822: real time    0.5841
       DOS:  cpu time    0.0007: real time    0.0007
    CHARGE:  cpu time    0.6164: real time    0.6179
    MIXING:  cpu time    0.0038: real time    0.0038
    --------------------------------------------
      LOOP:  cpu time   11.2624: real time   11.3007

 eigenvalue-minimisations  :  7076
 total energy-change (2. order) :-0.4554082E+01  (-0.5288394E+00)
 number of electron     675.0000436 magnetization      39.0936605
 augmentation part      121.0158060 magnetization      31.8296857

 Broyden mixing:
  rms(total) = 0.34580E+01    rms(broyden)= 0.34570E+01
  rms(prec ) = 0.41788E+01
  weight for this iteration     100.00

 eigenvalues of (default mixing * dielectric matrix)
  average eigenvalue GAMMA=   0.5090
  1.8129  0.4955  0.4955  0.5415  0.2595  0.2595  0.3626  0.1771  0.1771

 Free energy of the ion-electron system (eV)
  ---------------------------------------------------
  alpha Z        PSCENC =      1717.01503502
  Ewald energy   TEWEN  =    226780.36082219
  -Hartree energ DENC   =   -272500.60465252
  -exchange      EXHF   =         0.00000000
  -V(xc)+E(xc)   XCENC  =      1338.11935564
  PAW double counting   =     60501.03980418   -59429.79086636
  entropy T*S    EENTRO =        -0.08435968
  eigenvalues    EBANDS =     -4871.06067438
  atomic energy  EATOM  =     45874.02969909
  Solvation  Ediel_sol  =         0.00000000
  ---------------------------------------------------
  free energy    TOTEN  =      -590.97583682 eV

  energy without entropy =     -590.89147715  energy(sigma->0) =     -590.93365698


--------------------------------------------------------------------------------------------------------




--------------------------------------- Iteration      1(  15)  ---------------------------------------


    POTLOK:  cpu time    0.0920: real time    0.0927
    SETDIJ:  cpu time    0.0160: real time    0.0161
    EDDIAG:  cpu time    2.6022: real time    2.6092
  RMM-DIIS:  cpu time    7.3398: real time    7.3649
    ORTHCH:  cpu time    0.5820: real time    0.5837
       DOS:  cpu time    0.0007: real time    0.0007
    CHARGE:  cpu time    0.6125: real time    0.6140
    MIXING:  cpu time    0.0040: real time    0.0040
    --------------------------------------------
      LOOP:  cpu time   11.2492: real time   11.2852

 eigenvalue-minimisations  :  7040
 total energy-change (2. order) :-0.5666181E+00  (-0.1889012E+00)
 number of electron     675.0000450 magnetization      37.9626940
 augmentation part      121.0371829 magnetization      30.3183752

 Broyden mixing:
  rms(total) = 0.29956E+01    rms(broyden)= 0.29948E+01
  rms(prec ) = 0.31517E+01
  weight for this iteration     100.00

[...]
      8.015216  1.236687 11.273317            0           0           0  
     11.097071  1.321076 11.297241            0           0           0  
      8.005588  4.480766  8.089652            0           0           0  
     11.210103  4.480471  8.088491            0           0           0  
      9.536135  0.000000 13.224580    -0.607499    0.003440   -0.059912  
      6.417469  0.000000 13.215844    -0.792047    0.000502   -0.002079  
 
   5 f  =    4.804725 THz    30.188980 2PiTHz  160.268382 cm-1    19.870754 meV
             X         Y         Z           dx          dy          dz
      1.601066  3.235121  4.852682            0           0           0  
      4.803199  3.235121  4.852682            0           0           0  
      1.601066  0.000000  1.617561            0           0           0  
      4.803199  0.000000  1.617561            0           0           0  
      0.000000  3.235121  1.617561            0           0           0  
      3.202133  3.235121  1.617561            0           0           0  
      0.000000  0.000000  4.852682            0           0           0  
      3.202133  0.000000  4.852682            0           0           0  
      1.621043  3.235121 11.393684            0           0           0  
      4.807806  3.235121 11.358613            0           0           0  
      1.561029  0.000000  8.075712            0           0           0  
      4.822969  0.000000  8.084552            0           0           0  
     12.807200  3.235121  8.113957            0           0           0  
      3.201427  3.235121  8.106992            0           0           0  
      3.108822  0.000000 11.245490            0           0           0  
      0.000000  3.235121  3.613243            0           0           0  
      3.202133  3.235121  3.613243            0           0           0  
      0.000000  0.000000  0.378121            0           0           0  
      3.202133  0.000000  0.378121            0           0           0  
      1.601066  5.230803  4.852682            0           0           0  
      4.803199  5.230803  4.852682            0           0           0  
      1.601066  1.995682  1.617561            0           0           0  
      4.803199  1.995682  1.617561            0           0           0  
      0.000000  3.235121  6.092122            0           0           0  
      3.202133  3.235121  6.092122            0           0           0  
      0.000000  0.000000  2.857000            0           0           0  
      3.202133  0.000000  2.857000            0           0           0  
      1.601066  1.239440  4.852682            0           0           0  
      4.803199  1.239440  4.852682            0           0           0  
      1.601066  4.474561  1.617561            0           0           0  
      4.803199  4.474561  1.617561            0           0           0  
      0.004357  3.235121 10.110803            0           0           0  
      3.215449  3.235121 10.101563            0           0           0  
     12.805128  0.000000  6.828540            0           0           0  
      3.211365  0.000000  6.847441            0           0           0  
      1.755638  5.140297 11.454680            0           0           0  
      4.765746  5.237618 11.329998            0           0           0  
      1.593524  1.993806  8.093818            0           0           0  
      4.808674  1.993085  8.094441            0           0           0  
     12.792221  3.235121 12.553466            0           0           0  
      3.264773  3.235121 12.589144            0           0           0  
      0.006716  0.000000  9.262628            0           0           0  
      3.195982  0.000000  9.290830            0           0           0  
      1.755638  1.329946 11.454680            0           0           0  
      4.765746  1.232625 11.329998            0           0           0  
      1.593524  4.476437  8.093818            0           0           0  
      4.808674  4.477158  8.094441            0           0           0  
      8.005332  3.235121  4.852682            0           0           0  
     11.207465  3.235121  4.852682            0           0           0  
      8.005332  0.000000  1.617561            0           0           0  
     11.207465  0.000000  1.617561            0           0           0  
      6.404266  3.235121  1.617561            0           0           0  
      9.606399  3.235121  1.617561            0           0           0  
      6.404266  0.000000  4.852682            0           0           0  
      9.606399  0.000000  4.852682            0           0           0  
      7.996299  3.235121 11.337779            0           0           0  
     11.193359  3.235121 11.373751            0           0           0  
      8.013932  0.000000  8.100010            0           0           0  
     11.230572  0.000000  8.088859            0           0           0  
      6.405789  3.235121  8.101908            0           0           0  
      9.605173  3.235121  8.100955            0           0           0  
      6.395364  0.000000 11.423673            0           0           0  
      9.686624  0.000000 11.443671            0           0           0  
      6.404266  3.235121  3.613243            0           0           0  
      9.606399  3.235121  3.613243            0           0           0  
      6.404266  0.000000  0.378121            0           0           0  
      9.606399  0.000000  0.378121            0           0           0  
      8.005332  5.230803  4.852682            0           0           0  
     11.207465  5.230803  4.852682            0           0           0  
      8.005332  1.995682  1.617561            0           0           0  
     11.207465  1.995682  1.617561            0           0           0  
      6.404266  3.235121  6.092122            0           0           0  
      9.606399  3.235121  6.092122            0           0           0  
      6.404266  0.000000  2.857000            0           0           0  
      9.606399  0.000000  2.857000            0           0           0  
      8.005332  1.239440  4.852682            0           0           0  
     11.207465  1.239440  4.852682            0           0           0  
      8.005332  4.474561  1.617561            0           0           0  
     11.207465  4.474561  1.617561            0           0           0  
      6.398102  3.235121 10.085713            0           0           0  
      9.577955  3.235121 10.084213            0           0           0  
      6.413548  0.000000  6.850126            0           0           0  
      9.601035  0.000000  6.853159            0           0           0  
      8.015216  5.233556 11.273317            0           0           0  
     11.097071  5.149167 11.297241            0           0           0  
      8.005588  1.989477  8.089652            0           0           0  
     11.210103  1.989772  8.088491            0           0           0  
      6.416370  3.235121 12.517913            0           0           0  
      9.571513  3.235121 12.545993            0           0           0  
      6.403765  0.000000  9.351011            0           0           0  
      9.620993  0.000000  9.330506            0           0           0  
      8.015216  1.236687 11.273317            0           0           0  
     11.097071  1.321076 11.297241            0           0           0  
      8.005588  4.480766  8.089652            0           0           0  
     11.210103  4.480471  8.088491            0           0           0  
      9.536135  0.000000 13.224580    -0.003686   -0.999016   -0.000613  
      6.417469  0.000000 13.215844    -0.001493   -0.044164   -0.000044  
 
   6 f  =    2.632400 THz    16.539856 2PiTHz   87.807405 cm-1    10.886735 meV
             X         Y         Z           dx          dy          dz
      1.601066  3.235121  4.852682            0           0           0  
      4.803199  3.235121  4.852682            0           0           0  
      1.601066  0.000000  1.617561            0           0           0  
      4.803199  0.000000  1.617561            0           0           0  
      0.000000  3.235121  1.617561            0           0           0  
      3.202133  3.235121  1.617561            0           0           0  
      0.000000  0.000000  4.852682            0           0           0  
      3.202133  0.000000  4.852682            0           0           0  
      1.621043  3.235121 11.393684            0           0           0  
      4.807806  3.235121 11.358613            0           0           0  
      1.561029  0.000000  8.075712            0           0           0  
      4.822969  0.000000  8.084552            0           0           0  
     12.807200  3.235121  8.113957            0           0           0  
      3.201427  3.235121  8.106992            0           0           0  
      3.108822  0.000000 11.245490            0           0           0  
      0.000000  3.235121  3.613243            0           0           0  
      3.202133  3.235121  3.613243            0           0           0  
      0.000000  0.000000  0.378121            0           0           0  
      3.202133  0.000000  0.378121            0           0           0  
      1.601066  5.230803  4.852682            0           0           0  
      4.803199  5.230803  4.852682            0           0           0  
      1.601066  1.995682  1.617561            0           0           0  
      4.803199  1.995682  1.617561            0           0           0  
      0.000000  3.235121  6.092122            0           0           0  
      3.202133  3.235121  6.092122            0           0           0  
      0.000000  0.000000  2.857000            0           0           0  
      3.202133  0.000000  2.857000            0           0           0  
      1.601066  1.239440  4.852682            0           0           0  
      4.803199  1.239440  4.852682            0           0           0  
      1.601066  4.474561  1.617561            0           0           0  
      4.803199  4.474561  1.617561            0           0           0  
      0.004357  3.235121 10.110803            0           0           0  
      3.215449  3.235121 10.101563            0           0           0  
     12.805128  0.000000  6.828540            0           0           0  
      3.211365  0.000000  6.847441            0           0           0  
      1.755638  5.140297 11.454680            0           0           0  
      4.765746  5.237618 11.329998            0           0           0  
      1.593524  1.993806  8.093818            0           0           0  
      4.808674  1.993085  8.094441            0           0           0  
     12.792221  3.235121 12.553466            0           0           0  
      3.264773  3.235121 12.589144            0           0           0  
      0.006716  0.000000  9.262628            0           0           0  
      3.195982  0.000000  9.290830            0           0           0  
      1.755638  1.329946 11.454680            0           0           0  
      4.765746  1.232625 11.329998            0           0           0  
      1.593524  4.476437  8.093818            0           0           0  
      4.808674  4.477158  8.094441            0           0           0  
      8.005332  3.235121  4.852682            0           0           0  
     11.207465  3.235121  4.852682            0           0           0  
      8.005332  0.000000  1.617561            0           0           0  
     11.207465  0.000000  1.617561            0           0           0  
      6.404266  3.235121  1.617561            0           0           0  
      9.606399  3.235121  1.617561            0           0           0  
      6.404266  0.000000  4.852682            0           0           0  
      9.606399  0.000000  4.852682            0           0           0  
      7.996299  3.235121 11.337779            0           0           0  
     11.193359  3.235121 11.373751            0           0           0  
      8.013932  0.000000  8.100010            0           0           0  
     11.230572  0.000000  8.088859            0           0           0  
      6.405789  3.235121  8.101908            0           0           0  
      9.605173  3.235121  8.100955            0           0           0  
      6.395364  0.000000 11.423673            0           0           0  
      9.686624  0.000000 11.443671            0           0           0  
      6.404266  3.235121  3.613243            0           0           0  
      9.606399  3.235121  3.613243            0           0           0  
      6.404266  0.000000  0.378121            0           0           0  
      9.606399  0.000000  0.378121            0           0           0  
      8.005332  5.230803  4.852682            0           0           0  
     11.207465  5.230803  4.852682            0           0           0  
      8.005332  1.995682  1.617561            0           0           0  
     11.207465  1.995682  1.617561            0           0           0  
      6.404266  3.235121  6.092122            0           0           0  
      9.606399  3.235121  6.092122            0           0           0  
      6.404266  0.000000  2.857000            0           0           0  
      9.606399  0.000000  2.857000            0           0           0  
      8.005332  1.239440  4.852682            0           0           0  
     11.207465  1.239440  4.852682            0           0           0  
      8.005332  4.474561  1.617561            0           0           0  
     11.207465  4.474561  1.617561            0           0           0  
      6.398102  3.235121 10.085713            0           0           0  
      9.577955  3.235121 10.084213            0           0           0  
      6.413548  0.000000  6.850126            0           0           0  
      9.601035  0.000000  6.853159            0           0           0  
      8.015216  5.233556 11.273317            0           0           0  
     11.097071  5.149167 11.297241            0           0           0  
      8.005588  1.989477  8.089652            0           0           0  
     11.210103  1.989772  8.088491            0           0           0  
      6.416370  3.235121 12.517913            0           0           0  
      9.571513  3.235121 12.545993            0           0           0  
      6.403765  0.000000  9.351011            0           0           0  
      9.620993  0.000000  9.330506            0           0           0  
      8.015216  1.236687 11.273317            0           0           0  
     11.097071  1.321076 11.297241            0           0           0  
      8.005588  4.480766  8.089652            0           0           0  
     11.210103  4.480471  8.088491            0           0           0  
      9.536135  0.000000 13.224580     0.000166   -0.044165    0.000049  
      6.417469  0.000000 13.215844     0.000310    0.999024   -0.000003  
 
 Finite differences POTIM=  1.500000000000000E-002
  LATTYP: Found a simple orthorhombic cell.
 ALAT       =     6.4702430000
 B/A-ratio  =     1.9796060210
 C/A-ratio  =     4.0000000000
  
  Lattice vectors:
  
 A1 = (   0.0000000000,  -6.4702430000,   0.0000000000)
 A2 = ( -12.8085320000,   0.0000000000,   0.0000000000)
 A3 = (   0.0000000000,   0.0000000000, -25.8809720000)


Analysis of symmetry for initial positions (statically):
=====================================================================
 Subroutine PRICEL returns:
 Original cell was already a primitive cell.
 

 Routine SETGRP: Setting up the symmetry group for a 
 simple orthorhombic supercell.


 Subroutine GETGRP returns: Found  2 space group operations
 (whereof  2 operations were pure point group operations)
 out of a pool of  8 trial point group operations.


The static configuration has the point symmetry C_1h.


Analysis of symmetry for dynamics (positions and initial velocities):
=====================================================================
 Subroutine PRICEL returns:
 Original cell was already a primitive cell.
 

 Routine SETGRP: Setting up the symmetry group for a 
 simple orthorhombic supercell.


 Subroutine GETGRP returns: Found  2 space group operations
 (whereof  2 operations were pure point group operations)
 out of a pool of  8 trial point group operations.


The dynamic configuration has the point symmetry C_1h.


Analysis of constrained symmetry for selective dynamics:
=====================================================================
 Subroutine PRICEL returns:
 Original cell was already a primitive cell.
 

 Routine SETGRP: Setting up the symmetry group for a 
 simple orthorhombic supercell.


 Subroutine GETGRP returns: Found  2 space group operations
 (whereof  2 operations were pure point group operations)
 out of a pool of  8 trial point group operations.


The constrained configuration has the point symmetry C_1h.


Analysis of structural, dynamic, and magnetic symmetry:
=====================================================================
 Subroutine PRICEL returns:
 Original cell was already a primitive cell.
 

 Routine SETGRP: Setting up the symmetry group for a 
 simple orthorhombic supercell.


 Subroutine GETGRP returns: Found  2 space group operations
 (whereof  2 operations were pure point group operations)
 out of a pool of  8 trial point group operations.


The magnetic configuration has the point symmetry C_1h.


 Subroutine INISYM returns: Found  2 space group operations
 (whereof  2 operations are pure point group operations),
 and found     1 'primitive' translations

 
 KPOINTS: Automatic mesh                          

Automatic generation of k-mesh.
Space group operators:
 irot       det(A)        alpha          n_x          n_y          n_z        tau_x        tau_y        tau_z
    1     1.000000     0.000001     1.000000     0.000000     0.000000     0.000000     0.000000     0.000000
    2    -1.000000   180.000000     0.000000     1.000000     0.000000     0.000000     0.000000     0.000000
 
 Subroutine IBZKPT returns following result:
 ===========================================
 
 Found      4 irreducible k-points:
 
 Following reciprocal coordinates:
            Coordinates               Weight
  0.000000  0.000000  0.000000      1.000000
  0.333333  0.000000  0.000000      2.000000
  0.000000  0.333333  0.000000      2.000000
  0.333333  0.333333  0.000000      4.000000
 
 Following cartesian coordinates:
            Coordinates               Weight
  0.000000  0.000000  0.000000      1.000000
  0.026024  0.000000  0.000000      2.000000
  0.000000  0.051518  0.000000      2.000000
  0.026024  0.051518  0.000000      4.000000
 
     LOOP+:  cpu time   89.1096: real time   89.4172
    4ORBIT:  cpu time    0.0000: real time    0.0000

 total amount of memory used by VASP MPI-rank0   171852. kBytes
=======================================================================

   base      :      30000. kBytes
   nonlr-proj:      19236. kBytes
   fftplans  :       4196. kBytes
   grid      :      37119. kBytes
   one-center:       3017. kBytes
   wavefun   :      78284. kBytes
 
  
  
 General timing and accounting informations for this job:
 ========================================================
  
                  Total CPU time used (sec):     2818.456
                            User time (sec):     2778.595
                          System time (sec):       39.860
                         Elapsed time (sec):     2840.045
  
                   Maximum memory used (kb):      428848.
                   Average memory used (kb):           0.
  
                          Minor page faults:      1991634
                          Major page faults:          141
                 Voluntary context switches:         8004
