 vasp.5.4.4.18Apr17-6-g9f103f2a35 (build Feb 25 2019 10:51:38) complex          
  
 executed on             LinuxIFC date 2023.03.15  11:26:31
 running on   40 total cores
 distrk:  each k-point on   40 cores,    1 groups
 distr:  one band on NCORES_PER_BAND=   1 cores,   40 groups


--------------------------------------------------------------------------------------------------------


 INCAR:
 POTCAR:    PAW_PBE Ir 06Sep2000                  
 POTCAR:    PAW_PBE O 08Apr2002                   
 POTCAR:    PAW_PBE Ir 06Sep2000                  
 POTCAR:    PAW_PBE O 08Apr2002                   

 ----------------------------------------------------------------------------- 
|                                                                             |
|           W    W    AA    RRRRR   N    N  II  N    N   GGGG   !!!           |
|           W    W   A  A   R    R  NN   N  II  NN   N  G    G  !!!           |
|           W    W  A    A  R    R  N N  N  II  N N  N  G       !!!           |
|           W WW W  AAAAAA  RRRRR   N  N N  II  N  N N  G  GGG   !            |
|           WW  WW  A    A  R   R   N   NN  II  N   NN  G    G                |
|           W    W  A    A  R    R  N    N  II  N    N   GGGG   !!!           |
|                                                                             |
|      For optimal performance we recommend to set                            |
|        NCORE= 4 - approx SQRT( number of cores)                             |
|      NCORE specifies how many cores store one orbital (NPAR=cpu/NCORE).     |
|      This setting can  greatly improve the performance of VASP for DFT.     |
|      The default,   NCORE=1            might be grossly inefficient         |
|      on modern multi-core architectures or massively parallel machines.     |
|      Do your own testing !!!!                                               |
|      Unfortunately you need to use the default for GW and RPA calculations. |
|      (for HF NCORE is supported but not extensively tested yet)             |
|                                                                             |
 ----------------------------------------------------------------------------- 

 POTCAR:    PAW_PBE Ir 06Sep2000                  
   VRHFIN =Ir: s1d8                                                             
   LEXCH  = PE                                                                  
   EATOM  =   560.1833 eV,   41.1723 Ry                                         
                                                                                
   TITEL  = PAW_PBE Ir 06Sep2000                                                
   LULTRA =        F    use ultrasoft PP ?                                      
   IUNSCR =        1    unscreen: 0-lin 1-nonlin 2-no                           
   RPACOR =    2.250    partial core radius                                     
   POMASS =  192.220; ZVAL   =    9.000    mass and valenz                      
   RCORE  =    2.600    outmost cutoff radius                                   
   RWIGS  =    2.690; RWIGS  =    1.423    wigner-seitz radius (au A)           
   ENMAX  =  210.864; ENMIN  =  158.148 eV                                      
   RCLOC  =    1.857    cutoff for local pot                                    
   LCOR   =        T    correct aug charges                                     
   LPAW   =        T    paw PP                                                  
   EAUG   =  318.962                                                            
   DEXC   =    0.000                                                            
   RMAX   =    2.667    core radius for proj-oper                               
   RAUG   =    1.300    factor for augmentation sphere                          
   RDEP   =    2.748    radius for radial grids                                 
   RDEPT  =    2.300    core radius for aug-charge                              
                                                                                
   Atomic configuration                                                         
   16 entries                                                                   
     n  l   j            E        occ.                                          
     1  0  0.50    -76100.0449   2.0000                                         
     2  0  0.50    -13308.1683   2.0000                                         
     2  1  1.50    -11558.0021   6.0000                                         
     3  0  0.50     -3110.7274   2.0000                                         
     3  1  1.50     -2599.2109   6.0000                                         
     3  2  2.50     -2037.1515  10.0000                                         
     4  0  0.50      -661.6001   2.0000                                         
     4  1  1.50      -493.8981   6.0000                                         
     4  2  2.50      -288.1909  10.0000                                         
     4  3  3.50       -59.5718  14.0000                                         
     5  0  0.50       -95.3879   2.0000                                         
     5  1  1.50       -52.2747   6.0000                                         
     5  2  2.50        -5.4180   8.0000                                         
     6  0  0.50        -5.5479   1.0000                                         
     6  1  1.50        -6.8029   0.0000                                         
     5  3  2.50        -1.3606   0.0000                                         
   Description                                                                  
     l       E           TYP  RCUT    TYP  RCUT                                 
     2     -5.4179967     23  2.600                                             
     2     -6.7785793     23  2.600                                             
     0     -5.5478636     23  2.600                                             
     0      2.2542272     23  2.600                                             
     1     -2.7211652     23  2.600                                             
     1     20.4087390     23  2.600                                             
  local pseudopotential read in
  partial core-charges read in
  partial kinetic energy density read in
  atomic valenz-charges read in
  non local Contribution for L=           2  read in
    real space projection operators read in
  non local Contribution for L=           2  read in
    real space projection operators read in
  non local Contribution for L=           0  read in
    real space projection operators read in
  non local Contribution for L=           0  read in
    real space projection operators read in
  non local Contribution for L=           1  read in
    real space projection operators read in
  non local Contribution for L=           1  read in
    real space projection operators read in
    PAW grid and wavefunctions read in
 
   number of l-projection  operators is LMAX  =           6
   number of lm-projection operators is LMMAX =          18
 
 POTCAR:    PAW_PBE O 08Apr2002                   
   VRHFIN =O: s2p4                                                              
   LEXCH  = PE                                                                  
   EATOM  =   432.3788 eV,   31.7789 Ry                                         
                                                                                
   TITEL  = PAW_PBE O 08Apr2002                                                 
   LULTRA =        F    use ultrasoft PP ?                                      
   IUNSCR =        1    unscreen: 0-lin 1-nonlin 2-no                           
   RPACOR =    1.200    partial core radius                                     
   POMASS =   16.000; ZVAL   =    6.000    mass and valenz                      
   RCORE  =    1.520    outmost cutoff radius                                   
   RWIGS  =    1.550; RWIGS  =    0.820    wigner-seitz radius (au A)           
   ENMAX  =  400.000; ENMIN  =  300.000 eV                                      
   ICORE  =        2    local potential                                         
   LCOR   =        T    correct aug charges                                     
   LPAW   =        T    paw PP                                                  
   EAUG   =  605.392                                                            
   DEXC   =    0.000                                                            
   RMAX   =    1.553    core radius for proj-oper                               
   RAUG   =    1.300    factor for augmentation sphere                          
   RDEP   =    1.550    radius for radial grids                                 
   RDEPT  =    1.329    core radius for aug-charge                              
                                                                                
   Atomic configuration                                                         
    4 entries                                                                   
     n  l   j            E        occ.                                          
     1  0  0.50      -514.6923   2.0000                                         
     2  0  0.50       -23.9615   2.0000                                         
     2  1  0.50        -9.0305   4.0000                                         
     3  2  1.50        -9.5241   0.0000                                         
   Description                                                                  
     l       E           TYP  RCUT    TYP  RCUT                                 
     0    -23.9615318     23  1.200                                             
     0     -9.5240782     23  1.200                                             
     1     -9.0304911     23  1.520                                             
     1      8.1634956     23  1.520                                             
     2     -9.5240782      7  1.500                                             
  local pseudopotential read in
  partial core-charges read in
  partial kinetic energy density read in
  kinetic energy density of atom read in
  atomic valenz-charges read in
  non local Contribution for L=           0  read in
    real space projection operators read in
  non local Contribution for L=           0  read in
    real space projection operators read in
  non local Contribution for L=           1  read in
    real space projection operators read in
  non local Contribution for L=           1  read in
    real space projection operators read in
    PAW grid and wavefunctions read in
 
   number of l-projection  operators is LMAX  =           4
   number of lm-projection operators is LMMAX =           8
 
 POTCAR:    PAW_PBE Ir 06Sep2000                  
   VRHFIN =Ir: s1d8                                                             
   LEXCH  = PE                                                                  
   EATOM  =   560.1833 eV,   41.1723 Ry                                         
                                                                                
   TITEL  = PAW_PBE Ir 06Sep2000                                                
   LULTRA =        F    use ultrasoft PP ?                                      
   IUNSCR =        1    unscreen: 0-lin 1-nonlin 2-no                           
   RPACOR =    2.250    partial core radius                                     
   POMASS =  192.220; ZVAL   =    9.000    mass and valenz                      
   RCORE  =    2.600    outmost cutoff radius                                   
   RWIGS  =    2.690; RWIGS  =    1.423    wigner-seitz radius (au A)           
   ENMAX  =  210.864; ENMIN  =  158.148 eV                                      
   RCLOC  =    1.857    cutoff for local pot                                    
   LCOR   =        T    correct aug charges                                     
   LPAW   =        T    paw PP                                                  
   EAUG   =  318.962                                                            
   DEXC   =    0.000                                                            
   RMAX   =    2.667    core radius for proj-oper                               
   RAUG   =    1.300    factor for augmentation sphere                          
   RDEP   =    2.748    radius for radial grids                                 
   RDEPT  =    2.300    core radius for aug-charge                              
                                                                                
   Atomic configuration                                                         
   16 entries                                                                   
     n  l   j            E        occ.                                          
     1  0  0.50    -76100.0449   2.0000                                         
     2  0  0.50    -13308.1683   2.0000                                         
     2  1  1.50    -11558.0021   6.0000                                         
     3  0  0.50     -3110.7274   2.0000                                         
     3  1  1.50     -2599.2109   6.0000                                         
     3  2  2.50     -2037.1515  10.0000                                         
     4  0  0.50      -661.6001   2.0000                                         
     4  1  1.50      -493.8981   6.0000                                         
     4  2  2.50      -288.1909  10.0000                                         
     4  3  3.50       -59.5718  14.0000                                         
     5  0  0.50       -95.3879   2.0000                                         
     5  1  1.50       -52.2747   6.0000                                         
     5  2  2.50        -5.4180   8.0000                                         
     6  0  0.50        -5.5479   1.0000                                         
     6  1  1.50        -6.8029   0.0000                                         
     5  3  2.50        -1.3606   0.0000                                         
   Description                                                                  
     l       E           TYP  RCUT    TYP  RCUT                                 
     2     -5.4179967     23  2.600                                             
     2     -6.7785793     23  2.600                                             
     0     -5.5478636     23  2.600                                             
     0      2.2542272     23  2.600                                             
     1     -2.7211652     23  2.600                                             
     1     20.4087390     23  2.600                                             
  local pseudopotential read in
  partial core-charges read in
  partial kinetic energy density read in
  atomic valenz-charges read in
  non local Contribution for L=           2  read in
    real space projection operators read in
  non local Contribution for L=           2  read in
    real space projection operators read in
  non local Contribution for L=           0  read in
    real space projection operators read in
  non local Contribution for L=           0  read in
    real space projection operators read in
  non local Contribution for L=           1  read in
    real space projection operators read in
  non local Contribution for L=           1  read in
    real space projection operators read in
    PAW grid and wavefunctions read in
 
   number of l-projection  operators is LMAX  =           6
   number of lm-projection operators is LMMAX =          18
 
 POTCAR:    PAW_PBE O 08Apr2002                   
   VRHFIN =O: s2p4                                                              
   LEXCH  = PE                                                                  
   EATOM  =   432.3788 eV,   31.7789 Ry                                         
                                                                                
   TITEL  = PAW_PBE O 08Apr2002                                                 
   LULTRA =        F    use ultrasoft PP ?                                      
   IUNSCR =        1    unscreen: 0-lin 1-nonlin 2-no                           
   RPACOR =    1.200    partial core radius                                     
   POMASS =   16.000; ZVAL   =    6.000    mass and valenz                      
   RCORE  =    1.520    outmost cutoff radius                                   
   RWIGS  =    1.550; RWIGS  =    0.820    wigner-seitz radius (au A)           
   ENMAX  =  400.000; ENMIN  =  300.000 eV                                      
   ICORE  =        2    local potential                                         
   LCOR   =        T    correct aug charges                                     
   LPAW   =        T    paw PP                                                  
   EAUG   =  605.392                                                            
   DEXC   =    0.000                                                            
   RMAX   =    1.553    core radius for proj-oper                               
   RAUG   =    1.300    factor for augmentation sphere                          
   RDEP   =    1.550    radius for radial grids                                 
   RDEPT  =    1.329    core radius for aug-charge                              
                                                                                
   Atomic configuration                                                         
    4 entries                                                                   
     n  l   j            E        occ.                                          
     1  0  0.50      -514.6923   2.0000                                         
     2  0  0.50       -23.9615   2.0000                                         
     2  1  0.50        -9.0305   4.0000                                         
     3  2  1.50        -9.5241   0.0000                                         
   Description                                                                  
     l       E           TYP  RCUT    TYP  RCUT                                 
     0    -23.9615318     23  1.200                                             
     0     -9.5240782     23  1.200                                             
     1     -9.0304911     23  1.520                                             
     1      8.1634956     23  1.520                                             
     2     -9.5240782      7  1.500                                             
  local pseudopotential read in
  partial core-charges read in
  partial kinetic energy density read in
  kinetic energy density of atom read in
  atomic valenz-charges read in
  non local Contribution for L=           0  read in
    real space projection operators read in
  non local Contribution for L=           0  read in
    real space projection operators read in
  non local Contribution for L=           1  read in
    real space projection operators read in
  non local Contribution for L=           1  read in
    real space projection operators read in
    PAW grid and wavefunctions read in
 
   number of l-projection  operators is LMAX  =           4
   number of lm-projection operators is LMMAX =           8
 
 Optimization of the real space projectors (new method)

 maximal supplied QI-value         = 14.36
 optimisation between [QCUT,QGAM] = [ 11.35, 22.84] = [ 36.05,146.02] Ry 
 Optimized for a Real-space Cutoff    1.52 Angstroem

   l    n(q)    QCUT    max X(q) W(low)/X(q) W(high)/X(q)  e(spline) 
   2      9    11.346   134.116    0.47E-03    0.13E-03    0.92E-06
   2      9    11.346   130.192    0.47E-03    0.13E-03    0.92E-06
   0     10    11.346    60.310    0.74E-04    0.13E-03    0.69E-06
   0     10    11.346    39.218    0.68E-04    0.12E-03    0.65E-06
   1     10    11.346    18.439    0.15E-03    0.34E-04    0.20E-06
   1     10    11.346    12.760    0.12E-03    0.31E-04    0.16E-06
 Optimization of the real space projectors (new method)

 maximal supplied QI-value         = 24.76
 optimisation between [QCUT,QGAM] = [ 11.39, 22.77] = [ 36.31,145.25] Ry 
 Optimized for a Real-space Cutoff    1.00 Angstroem

   l    n(q)    QCUT    max X(q) W(low)/X(q) W(high)/X(q)  e(spline) 
   0      7    11.387    20.381    0.39E-03    0.13E-02    0.15E-06
   0      7    11.387    15.268    0.42E-03    0.14E-02    0.17E-06
   1      6    11.387     5.964    0.41E-03    0.11E-02    0.17E-06
   1      6    11.387     5.382    0.39E-03    0.87E-03    0.15E-06
 Optimization of the real space projectors (new method)

 maximal supplied QI-value         = 14.36
 optimisation between [QCUT,QGAM] = [ 11.35, 22.84] = [ 36.05,146.02] Ry 
 Optimized for a Real-space Cutoff    1.52 Angstroem

   l    n(q)    QCUT    max X(q) W(low)/X(q) W(high)/X(q)  e(spline) 
   2      9    11.346   134.116    0.47E-03    0.13E-03    0.92E-06
   2      9    11.346   130.192    0.47E-03    0.13E-03    0.92E-06
   0     10    11.346    60.310    0.74E-04    0.13E-03    0.69E-06
   0     10    11.346    39.218    0.68E-04    0.12E-03    0.65E-06
   1     10    11.346    18.439    0.15E-03    0.34E-04    0.20E-06
   1     10    11.346    12.760    0.12E-03    0.31E-04    0.16E-06
 Optimization of the real space projectors (new method)

 maximal supplied QI-value         = 24.76
 optimisation between [QCUT,QGAM] = [ 11.39, 22.77] = [ 36.31,145.25] Ry 
 Optimized for a Real-space Cutoff    1.00 Angstroem

   l    n(q)    QCUT    max X(q) W(low)/X(q) W(high)/X(q)  e(spline) 
   0      7    11.387    20.381    0.39E-03    0.13E-02    0.15E-06
   0      7    11.387    15.268    0.42E-03    0.14E-02    0.17E-06
   1      6    11.387     5.964    0.41E-03    0.11E-02    0.17E-06
   1      6    11.387     5.382    0.39E-03    0.87E-03    0.15E-06

 ----------------------------------------------------------------------------- 
|                                                                             |
|  ADVICE TO THIS USER RUNNING 'VASP/VAMP'   (HEAR YOUR MASTER'S VOICE ...):  |
|                                                                             |
|      You enforced a specific xc-type in the INCAR file,                     |
|      a different type was found on the POTCAR file                          |
|          I HOPE YOU KNOW, WHAT YOU ARE  DOING                               |
|                                                                             |
 ----------------------------------------------------------------------------- 

  PAW_PBE Ir 06Sep2000                  :
 energy of atom  1       EATOM= -560.1833
 kinetic energy error for atom=    0.0018 (will be added to EATOM!!)
  PAW_PBE O 08Apr2002                   :
 energy of atom  2       EATOM= -432.3788
 kinetic energy error for atom=    0.0224 (will be added to EATOM!!)
  PAW_PBE Ir 06Sep2000                  :
 energy of atom  3       EATOM= -560.1833
 kinetic energy error for atom=    0.0018 (will be added to EATOM!!)
  PAW_PBE O 08Apr2002                   :
 energy of atom  4       EATOM= -432.3788
 kinetic energy error for atom=    0.0224 (will be added to EATOM!!)
 
 
 POSCAR: Ir  O Ir  O                             
  positions in cartesian coordinates
  No initial velocities read in
 exchange correlation table for  LEXCH =        9
   RHO(1)=    0.500       N(1)  =     2000
   RHO(2)=  100.500       N(2)  =     4000

 VTST: version 3.2, (02/03/18)

 CHAIN: initializing optimizer
 
 OPT: Using VASP Dynamics algorithm
 CHAIN: Read ICHAIN            0
 
 POSCAR: Ir  O Ir  O                             
  positions in cartesian coordinates
  No initial velocities read in
 


--------------------------------------------------------------------------------------------------------


 ion  position               nearest neighbor table
   1  0.125  0.500  0.188-  21 2.00  29 2.00  17 2.02  25 2.02  26 2.02  18 2.02   2 3.20  50 3.20

   2  0.375  0.500  0.188-  22 2.00  30 2.00  26 2.02  18 2.02  65 2.02  73 2.02   1 3.20  49 3.20

   3  0.125  0.000  0.062-  23 2.00  31 2.00  19 2.02  27 2.02  28 2.02  20 2.02   4 3.20  52 3.20

   4  0.375  0.000  0.062-  24 2.00  32 2.00  28 2.02  20 2.02  67 2.02  75 2.02   3 3.20  51 3.20

   5  0.000  0.500  0.062-  17 2.00  23 2.02  31 2.02  72 2.02  80 2.02   6 3.20  54 3.20
   6  0.250  0.500  0.062-  18 2.00  23 2.02  24 2.02  31 2.02  32 2.02   5 3.20  53 3.20
   7  0.000  0.000  0.188-  35 1.99  27 2.00  29 2.02  21 2.02  70 2.02  78 2.02   8 3.20  56 3.20

   8  0.250  0.000  0.188-  36 1.99  28 2.00  21 2.02  29 2.02  30 2.02  22 2.02   7 3.20  55 3.20

   9  0.125  0.500  0.439-  42 1.99  41 2.00  37 2.01  45 2.01  33 2.03  34 2.04  58 3.19  10 3.20

  10  0.375  0.500  0.438-  42 1.98  89 1.99  38 2.00  46 2.00  81 2.02  34 2.04  57 3.19   9 3.20

  11  0.125  0.000  0.312-  39 2.00  47 2.00  43 2.02  44 2.02  35 2.02  36 2.02  60 3.22  12 3.23

  12  0.377  0.000  0.313-  40 1.99  48 1.99  83 2.01  90 2.02  44 2.02  36 2.04  59 3.18  11 3.23

  13  1.000  0.500  0.313-  33 1.96  25 2.01  88 2.02  95 2.02  39 2.03  47 2.03  62 3.20  14 3.21

  14  0.250  0.500  0.313-  34 1.99  26 2.00  39 2.03  47 2.03  40 2.03  48 2.03  61 3.21  13 3.21

  15  1.000  0.000  0.435-  43 1.95  86 2.02  93 2.02  37 2.03  45 2.03  64 3.20  16 3.21
  16  0.250  0.000  0.435-  44 1.95  37 2.02  45 2.02  46 2.02  38 2.02  15 3.21  63 3.21
  17  0.000  0.500  0.140-   5 2.00   1 2.02  50 2.02
  18  0.250  0.500  0.140-   6 2.00   2 2.02   1 2.02
  19  0.000  0.000  0.015-   3 2.02  52 2.02
  20  0.250  0.000  0.015-   3 2.02   4 2.02
  21  0.125  0.808  0.188-   1 2.00   7 2.02   8 2.02
  22  0.375  0.808  0.188-   2 2.00   8 2.02  55 2.02
  23  0.125  0.308  0.062-   3 2.00   5 2.02   6 2.02
  24  0.375  0.308  0.062-   4 2.00   6 2.02  53 2.02
  25  0.000  0.500  0.235-  13 2.01   1 2.02  50 2.02
  26  0.250  0.500  0.235-  14 2.00   2 2.02   1 2.02
  27  0.000  0.000  0.110-   7 2.00   3 2.02  52 2.02
  28  0.250  0.000  0.110-   8 2.00   4 2.02   3 2.02
  29  0.125  0.192  0.188-   1 2.00   7 2.02   8 2.02
  30  0.375  0.192  0.188-   2 2.00   8 2.02  55 2.02
  31  0.125  0.692  0.062-   3 2.00   5 2.02   6 2.02
  32  0.375  0.692  0.062-   4 2.00   6 2.02  53 2.02
  33  0.004  0.500  0.389-  13 1.96   9 2.03  58 2.08
  34  0.250  0.500  0.389-  14 1.99  10 2.04   9 2.04
  35  0.999  0.000  0.264-   7 1.99  11 2.02  60 2.04
  36  0.251  0.000  0.264-   8 1.99  11 2.02  12 2.04
  37  0.125  0.810  0.441-   9 2.01  16 2.02  15 2.03
  38  0.374  0.809  0.439-  10 2.00  16 2.02  63 2.03
  39  0.125  0.308  0.312-  11 2.00  13 2.03  14 2.03
  40  0.376  0.308  0.312-  12 1.99  61 2.03  14 2.03
  41  1.000  0.500  0.484-  58 1.98   9 2.00
  42  0.251  0.500  0.484-  10 1.98   9 1.99
  43  0.000  0.000  0.360-  15 1.95  11 2.02  60 2.02
  44  0.250  0.000  0.359-  16 1.95  11 2.02  12 2.02
  45  0.125  0.190  0.441-   9 2.01  16 2.02  15 2.03
  46  0.374  0.191  0.439-  10 2.00  16 2.02  63 2.03
  47  0.125  0.692  0.312-  11 2.00  13 2.03  14 2.03
  48  0.376  0.692  0.312-  12 1.99  61 2.03  14 2.03
  49  0.625  0.500  0.188-  69 2.00  77 2.00  65 2.02  73 2.02  74 2.02  66 2.02   2 3.20  50 3.20

  50  0.875  0.500  0.188-  70 2.00  78 2.00  66 2.02  17 2.02  74 2.02  25 2.02   1 3.20  49 3.20

  51  0.625  0.000  0.062-  71 2.00  79 2.00  67 2.02  75 2.02  76 2.02  68 2.02   4 3.20  52 3.20

  52  0.875  0.000  0.062-  72 2.00  80 2.00  68 2.02  19 2.02  76 2.02  27 2.02   3 3.20  51 3.20

  53  0.500  0.500  0.062-  65 2.00  32 2.02  24 2.02  71 2.02  79 2.02  54 3.20   6 3.20
  54  0.750  0.500  0.062-  66 2.00  71 2.02  72 2.02  79 2.02  80 2.02  53 3.20   5 3.20
  55  0.500  0.000  0.188-  75 2.00  83 2.00  69 2.02  22 2.02  77 2.02  30 2.02   8 3.20  56 3.20

  56  0.750  0.000  0.188-  76 2.00  84 2.00  69 2.02  77 2.02  78 2.02  70 2.02   7 3.20  55 3.20

  57  0.624  0.500  0.437-  89 1.97  85 1.99  92 1.99  82 2.01  81 2.07  10 3.19  58 3.23
  58  0.876  0.500  0.438-  41 1.98  86 1.99  93 1.99  82 2.02  33 2.08   9 3.19  57 3.23
  59  0.625  0.000  0.313-  87 1.99  94 1.99  90 2.03  84 2.03  83 2.03  91 2.04  12 3.18  60 3.18

  60  0.873  0.000  0.313-  88 1.99  95 1.99  84 2.02  43 2.02  91 2.02  35 2.04  59 3.18  11 3.22

  61  0.500  0.500  0.313-  81 1.96  73 2.00  87 2.02  94 2.02  40 2.03  48 2.03  62 3.20  14 3.21

  62  0.750  0.500  0.313-  82 2.01  74 2.02  88 2.02  95 2.02  94 2.03  87 2.03  61 3.20  13 3.20

  63  0.500  0.000  0.443-  97 1.80  92 2.03  85 2.03  46 2.03  38 2.03  90 2.10  64 3.20  16 3.21

  64  0.750  0.000  0.443-  96 1.80  92 2.03  85 2.03  93 2.04  86 2.04  91 2.10  63 3.20  15 3.20

  65  0.500  0.500  0.140-  53 2.00  49 2.02   2 2.02
  66  0.750  0.500  0.140-  54 2.00  50 2.02  49 2.02
  67  0.500  0.000  0.015-   4 2.02  51 2.02
  68  0.750  0.000  0.015-  51 2.02  52 2.02
  69  0.625  0.808  0.188-  49 2.00  55 2.02  56 2.02
  70  0.875  0.808  0.188-  50 2.00   7 2.02  56 2.02
  71  0.625  0.308  0.062-  51 2.00  53 2.02  54 2.02
  72  0.875  0.308  0.062-  52 2.00   5 2.02  54 2.02
  73  0.500  0.500  0.235-  61 2.00  49 2.02   2 2.02
  74  0.750  0.500  0.235-  62 2.02  50 2.02  49 2.02
  75  0.500  0.000  0.110-  55 2.00  51 2.02   4 2.02
  76  0.750  0.000  0.110-  56 2.00  52 2.02  51 2.02
  77  0.625  0.192  0.188-  49 2.00  55 2.02  56 2.02
  78  0.875  0.192  0.188-  50 2.00   7 2.02  56 2.02
  79  0.625  0.692  0.062-  51 2.00  53 2.02  54 2.02
  80  0.875  0.692  0.062-  52 2.00   5 2.02  54 2.02
  81  0.496  0.500  0.388-  61 1.96  10 2.02  57 2.07
  82  0.750  0.500  0.391-  57 2.01  62 2.01  58 2.02
  83  0.501  0.000  0.265-  55 2.00  12 2.01  59 2.03
  84  0.750  0.000  0.265-  56 2.00  60 2.02  59 2.03
  85  0.625  0.808  0.438-  57 1.99  64 2.03  63 2.03
  86  0.876  0.808  0.441-  58 1.99  15 2.02  64 2.04
  87  0.625  0.308  0.313-  59 1.99  61 2.02  62 2.03
  88  0.875  0.308  0.313-  60 1.99  62 2.02  13 2.02
  89  0.501  0.500  0.483-  57 1.97  10 1.99
  90  0.500  0.000  0.362-  12 2.02  59 2.03  63 2.10
  91  0.750  0.000  0.362-  60 2.02  59 2.04  64 2.10
  92  0.625  0.192  0.438-  57 1.99  64 2.03  63 2.03
  93  0.876  0.192  0.441-  58 1.99  15 2.02  64 2.04
  94  0.625  0.692  0.313-  59 1.99  61 2.02  62 2.03
  95  0.875  0.692  0.313-  60 1.99  62 2.02  13 2.02
  96  0.748  0.000  0.513-  64 1.80
  97  0.502  0.000  0.512-  63 1.80
 
  LATTYP: Found a simple orthorhombic cell.
 ALAT       =     6.4702430000
 B/A-ratio  =     1.9796060210
 C/A-ratio  =     4.0000000000
  
  Lattice vectors:
  
 A1 = (   0.0000000000,  -6.4702430000,   0.0000000000)
 A2 = ( -12.8085320000,   0.0000000000,   0.0000000000)
 A3 = (   0.0000000000,   0.0000000000, -25.8809720000)


Analysis of symmetry for initial positions (statically):
=====================================================================
 Subroutine PRICEL returns:
 Original cell was already a primitive cell.
 

 Routine SETGRP: Setting up the symmetry group for a 
 simple orthorhombic supercell.


 Subroutine GETGRP returns: Found  2 space group operations
 (whereof  2 operations were pure point group operations)
 out of a pool of  8 trial point group operations.


The static configuration has the point symmetry C_1h.


Analysis of symmetry for dynamics (positions and initial velocities):
=====================================================================
 Subroutine PRICEL returns:
 Original cell was already a primitive cell.
 

 Routine SETGRP: Setting up the symmetry group for a 
 simple orthorhombic supercell.


 Subroutine GETGRP returns: Found  2 space group operations
 (whereof  2 operations were pure point group operations)
 out of a pool of  8 trial point group operations.


The dynamic configuration has the point symmetry C_1h.


Analysis of constrained symmetry for selective dynamics:
=====================================================================
 Subroutine PRICEL returns:
 Original cell was already a primitive cell.
 

 Routine SETGRP: Setting up the symmetry group for a 
 simple orthorhombic supercell.


 Subroutine GETGRP returns: Found  2 space group operations
 (whereof  2 operations were pure point group operations)
 out of a pool of  8 trial point group operations.


The constrained configuration has the point symmetry C_1h.


Analysis of structural, dynamic, and magnetic symmetry:
=====================================================================
 Subroutine PRICEL returns:
 Original cell was already a primitive cell.
 

 Routine SETGRP: Setting up the symmetry group for a 
 simple orthorhombic supercell.


 Subroutine GETGRP returns: Found  2 space group operations
 (whereof  2 operations were pure point group operations)
 out of a pool of  8 trial point group operations.


The magnetic configuration has the point symmetry C_1h.


 Subroutine INISYM returns: Found  2 space group operations
 (whereof  2 operations are pure point group operations),
 and found     1 'primitive' translations

 
 
 KPOINTS: Automatic mesh                          

Automatic generation of k-mesh.
Space group operators:
 irot       det(A)        alpha          n_x          n_y          n_z        tau_x        tau_y        tau_z
    1     1.000000     0.000001     1.000000     0.000000     0.000000     0.000000     0.000000     0.000000
    2    -1.000000   180.000000     0.000000     1.000000     0.000000     0.000000     0.000000     0.000000
 
 Subroutine IBZKPT returns following result:
 ===========================================
 
 Found      4 irreducible k-points:
 
 Following reciprocal coordinates:
            Coordinates               Weight
  0.000000  0.000000  0.000000      1.000000
  0.333333  0.000000  0.000000      2.000000
  0.000000  0.333333  0.000000      2.000000
  0.333333  0.333333  0.000000      4.000000
 
 Following cartesian coordinates:
            Coordinates               Weight
  0.000000  0.000000  0.000000      1.000000
  0.026024  0.000000  0.000000      2.000000
  0.000000  0.051518  0.000000      2.000000
  0.026024  0.051518  0.000000      4.000000
 
 
 Subroutine IBZKPT_HF returns following result:
 ==============================================
 
 Found      9 k-points in 1st BZ
 the following      9 k-points will be used (e.g. in the exchange kernel)
 Following reciprocal coordinates:   # in IRBZ
  0.000000  0.000000  0.000000    0.11111111   1 t-inv F
  0.333333  0.000000  0.000000    0.11111111   2 t-inv F
  0.000000  0.333333  0.000000    0.11111111   3 t-inv F
  0.333333  0.333333  0.000000    0.11111111   4 t-inv F
  0.000000 -0.333333  0.000000    0.11111111   3 t-inv F
  0.333333 -0.333333  0.000000    0.11111111   4 t-inv F
 -0.333333  0.000000  0.000000    0.11111111   2 t-inv T
 -0.333333 -0.333333  0.000000    0.11111111   4 t-inv T
 -0.333333  0.333333  0.000000    0.11111111   4 t-inv T


--------------------------------------------------------------------------------------------------------




 Dimension of arrays:
   k-points           NKPTS =      4   k-points in BZ     NKDIM =      4   number of bands    NBANDS=    440
   number of dos      NEDOS =    301   number of ions     NIONS =     97
   non local maximal  LDIM  =      6   non local SUM 2l+1 LMDIM =     18
   total plane-waves  NPLWV = 362880
   max r-space proj   IRMAX =   2532   max aug-charges    IRDMAX=  12432
   dimension x,y,z NGX =    70 NGY =   36 NGZ =  144
   dimension x,y,z NGXF=   140 NGYF=   72 NGZF=  288
   support grid    NGXF=   140 NGYF=   72 NGZF=  288
   ions per type =              16  32  16  33
   NGX,Y,Z   is equivalent  to a cutoff of   9.09,  9.25,  9.25 a.u.
   NGXF,Y,Z  is equivalent  to a cutoff of  18.17, 18.50, 18.50 a.u.

 SYSTEM =  unknown system                          
 POSCAR =  Ir  O Ir  O                             

 Startparameter for this run:
   NWRITE =      2    write-flag & timer
   PREC   = normal    normal or accurate (medium, high low for compatibility)
   ISTART =      0    job   : 0-new  1-cont  2-samecut
   ICHARG =      2    charge: 1-file 2-atom 10-const
   ISPIN  =      2    spin polarized calculation?
   LNONCOLLINEAR =      F non collinear calculations
   LSORBIT =      F    spin-orbit coupling
   INIWAV =      1    electr: 0-lowe 1-rand  2-diag
   LASPH  =      F    aspherical Exc in radial PAW
   METAGGA=      F    non-selfconsistent MetaGGA calc.

 Electronic Relaxation 1
   ENCUT  =  500.0 eV  36.75 Ry    6.06 a.u.  23.35 11.80 47.19*2*pi/ulx,y,z
   ENINI  =  500.0     initial cutoff
   ENAUG  =  605.4 eV  augmentation charge cutoff
   NELM   =     60;   NELMIN=  4; NELMDL= -5     # of ELM steps 
   EDIFF  = 0.1E-05   stopping-criterion for ELM
   LREAL  =      T    real-space projection
   NLSPLINE    = F    spline interpolate recip. space projectors
   LCOMPAT=      F    compatible to vasp.4.4
   GGA_COMPAT  = T    GGA compatible to vasp.4.4-vasp.4.6
   LMAXPAW     = -100 max onsite density
   LMAXMIX     =    2 max onsite mixed and CHGCAR
   VOSKOWN=      0    Vosko Wilk Nusair interpolation
   ROPT   =   -0.00050  -0.00050  -0.00050  -0.00050
 Ionic relaxation
   EDIFFG = -.5E-01   stopping-criterion for IOM
   NSW    =   1201    number of steps for IOM
   NBLOCK =      1;   KBLOCK =   1201    inner block; outer block 
   IBRION =      5    ionic relax: 0-MD 1-quasi-New 2-CG
   NFREE  =      2    steps in history (QN), initial steepest desc. (CG)
   ISIF   =      2    stress and relaxation
   IWAVPR =     11    prediction:  0-non 1-charg 2-wave 3-comb
   ISYM   =      2    0-nonsym 1-usesym 2-fastsym
   LCORR  =      T    Harris-Foulkes like correction to forces

   POTIM  = 0.5000    time-step for ionic-motion
   TEIN   =    0.0    initial temperature
   TEBEG  =    0.0;   TEEND  =   0.0 temperature during run
   SMASS  =  -3.00    Nose mass-parameter (am)
   estimated Nose-frequenzy (Omega)   =  0.10E-29 period in steps =****** mass=  -0.375E-26a.u.
   SCALEE = 1.0000    scale energy and forces
   NPACO  =    256;   APACO  = 16.0  distance and # of slots for P.C.
   PSTRESS=    0.0 pullay stress

  Mass of Ions in am
   POMASS = 192.22 16.00192.22 16.00
  Ionic Valenz
   ZVAL   =   9.00  6.00  9.00  6.00
  Atomic Wigner-Seitz radii
   RWIGS  =  -1.00 -1.00 -1.00 -1.00
  virtual crystal weights 
   VCA    =   1.00  1.00  1.00  1.00
   NELECT =     678.0000    total number of electrons
   NUPDOWN=      -1.0000    fix difference up-down

 DOS related values:
   EMIN   =  10.00;   EMAX   =-10.00  energy-range for DOS
   EFERMI =   0.00
   ISMEAR =     0;   SIGMA  =   0.05  broadening in eV -4-tet -1-fermi 0-gaus

 Electronic relaxation 2 (details)
   IALGO  =     68    algorithm
   LDIAG  =      T    sub-space diagonalisation (order eigenvalues)
   LSUBROT=      F    optimize rotation matrix (better conditioning)
   TURBO    =      0    0=normal 1=particle mesh
   IRESTART =      0    0=no restart 2=restart with 2 vectors
   NREBOOT  =      0    no. of reboots
   NMIN     =      0    reboot dimension
   EREF     =   0.00    reference energy to select bands
   IMIX   =      4    mixing-type and parameters
     AMIX     =   0.40;   BMIX     =  1.00
     AMIX_MAG =   1.60;   BMIX_MAG =  1.00
     AMIN     =   0.10
     WC   =   100.;   INIMIX=   1;  MIXPRE=   1;  MAXMIX=  60

 Intra band minimization:
   WEIMIN = 0.0010     energy-eigenvalue tresh-hold
   EBREAK =  0.57E-09  absolut break condition
   DEPER  =   0.30     relativ break condition  

   TIME   =   0.40     timestep for ELM

  volume/ion in A,a.u.               =      22.11       149.22
  Fermi-wavevector in a.u.,A,eV,Ry     =   1.115196  2.107415 16.921052  1.243662
  Thomas-Fermi vector in A             =   2.251798
 
 Write flags
   LWAVE        =      F    write WAVECAR
   LDOWNSAMPLE  =      F    k-point downsampling of WAVECAR
   LCHARG       =      F    write CHGCAR
   LVTOT        =      F    write LOCPOT, total local potential
   LVHAR        =      T    write LOCPOT, Hartree potential only
   LELF         =      F    write electronic localiz. function (ELF)
   LORBIT       =      0    0 simple, 1 ext, 2 COOP (PROOUT), +10 PAW based schemes


 Dipole corrections
   LMONO  =      F    monopole corrections only (constant potential shift)
   LDIPOL =      F    correct potential (dipole corrections)
   IDIPOL =      0    1-x, 2-y, 3-z, 4-all directions 
   EPSILON=  1.0000000 bulk dielectric constant

 Exchange correlation treatment:
   GGA     =    RP    GGA type
   LEXCH   =     9    internal setting for exchange type
   VOSKOWN=      0    Vosko Wilk Nusair interpolation
   LHFCALC =     F    Hartree Fock is set to
   LHFONE  =     F    Hartree Fock one center treatment
   AEXX    =    0.0000 exact exchange contribution

 Linear response parameters
   LEPSILON=     F    determine dielectric tensor
   LRPA    =     F    only Hartree local field effects (RPA)
   LNABLA  =     F    use nabla operator in PAW spheres
   LVEL    =     F    velocity operator in full k-point grid
   LINTERFAST=   F  fast interpolation
   KINTER  =     0    interpolate to denser k-point grid
   CSHIFT  =0.1000    complex shift for real part using Kramers Kronig
   OMEGAMAX=  -1.0    maximum frequency
   DEG_THRESHOLD= 0.2000000E-02 threshold for treating states as degnerate
   RTIME   =   -0.100 relaxation time in fs
  (WPLASMAI=    0.000 imaginary part of plasma frequency in eV, 0.658/RTIME)
   DFIELD  = 0.0000000 0.0000000 0.0000000 field for delta impulse in time
 
 Orbital magnetization related:
   ORBITALMAG=     F  switch on orbital magnetization
   LCHIMAG   =     F  perturbation theory with respect to B field
   DQ        =  0.001000  dq finite difference perturbation B field
   LLRAUG    =     F  two centre corrections for induced B field



--------------------------------------------------------------------------------------------------------


 finite differences
   using selective dynamics as specified on POSCAR
   WARNING: If single coordinates had been selected the selection of coordinates
            is made according to the corresponding   d i r e c t   coordinates!
            Don't support selection of single cartesian coordinates -- sorry ...
  !
 charge density and potential will be updated during run
 spin polarized calculation
 RMM-DIIS sequential band-by-band and
  variant of blocked Davidson during initial phase
 perform sub-space diagonalisation
    before iterative eigenvector-optimisation
 modified Broyden-mixing scheme, WC =      100.0
 initial mixing is a Kerker type mixing with AMIX =  0.4000 and BMIX =      1.0000
 Hartree-type preconditioning will be used
 using additional bands          101
 real space projection scheme for non local part
 use partial core corrections
 calculate Harris-corrections to forces 
   (improved forces if not selfconsistent)
 use gradient corrections 
 use of overlap-Matrix (Vanderbilt PP)
 Gauss-broadening in eV      SIGMA  =   0.05


--------------------------------------------------------------------------------------------------------


  energy-cutoff  :      500.00
  volume of cell :     2144.87
      direct lattice vectors                 reciprocal lattice vectors
    12.808532000  0.000000000  0.000000000     0.078072959  0.000000000  0.000000000
     0.000000000  6.470243000  0.000000000     0.000000000  0.154553701  0.000000000
     0.000000000  0.000000000 25.880972000     0.000000000  0.000000000  0.038638425

  length of vectors
    12.808532000  6.470243000 25.880972000     0.078072959  0.154553701  0.038638425


 
 k-points in units of 2pi/SCALE and weight: Automatic mesh                          
   0.00000000  0.00000000  0.00000000       0.111
   0.02602432  0.00000000  0.00000000       0.222
   0.00000000  0.05151790  0.00000000       0.222
   0.02602432  0.05151790  0.00000000       0.444
 
 k-points in reciprocal lattice and weights: Automatic mesh                          
   0.00000000  0.00000000  0.00000000       0.111
   0.33333333  0.00000000  0.00000000       0.222
   0.00000000  0.33333333  0.00000000       0.222
   0.33333333  0.33333333  0.00000000       0.444
 
 position of ions in fractional coordinates (direct lattice) 
   0.12500000  0.50000000  0.18750000
   0.37500000  0.50000000  0.18750000
   0.12500000  0.00000000  0.06250000
   0.37500000  0.00000000  0.06250000
   0.00000000  0.50000000  0.06250000
   0.25000000  0.50000000  0.06250000
   0.00000000  0.00000000  0.18750000
   0.25000000  0.00000000  0.18750000
   0.12548958  0.50000000  0.43870306
   0.37519891  0.50000000  0.43811548
   0.12497675  0.00000000  0.31180276
   0.37680899  0.00000000  0.31257453
   0.99969020  0.50000000  0.31286696
   0.25015487  0.50000000  0.31262716
   0.99954470  0.00000000  0.43507857
   0.24997713  0.00000000  0.43466321
   0.00000000  0.50000000  0.13961000
   0.25000000  0.50000000  0.13961000
   0.00000000  0.00000000  0.01461000
   0.25000000  0.00000000  0.01461000
   0.12500000  0.80844000  0.18750000
   0.37500000  0.80844000  0.18750000
   0.12500000  0.30844000  0.06250000
   0.37500000  0.30844000  0.06250000
   0.00000000  0.50000000  0.23539000
   0.25000000  0.50000000  0.23539000
   0.00000000  0.00000000  0.11039000
   0.25000000  0.00000000  0.11039000
   0.12500000  0.19156000  0.18750000
   0.37500000  0.19156000  0.18750000
   0.12500000  0.69156000  0.06250000
   0.37500000  0.69156000  0.06250000
   0.00366870  0.50000000  0.38875489
   0.25002646  0.50000000  0.38946853
   0.99936237  0.00000000  0.26442890
   0.25052697  0.00000000  0.26437270
   0.12531147  0.81028746  0.44052222
   0.37438172  0.80888054  0.43902486
   0.12490598  0.30835543  0.31200945
   0.37556021  0.30794515  0.31198006
   0.99959745  0.50000000  0.48429816
   0.25103756  0.50000000  0.48366907
   0.00005561  0.00000000  0.35955987
   0.25027762  0.00000000  0.35933503
   0.12531147  0.18971254  0.44052222
   0.37438172  0.19111946  0.43902486
   0.12490598  0.69164457  0.31200945
   0.37556021  0.69205485  0.31198006
   0.62500000  0.50000000  0.18750000
   0.87500000  0.50000000  0.18750000
   0.62500000  0.00000000  0.06250000
   0.87500000  0.00000000  0.06250000
   0.50000000  0.50000000  0.06250000
   0.75000000  0.50000000  0.06250000
   0.50000000  0.00000000  0.18750000
   0.75000000  0.00000000  0.18750000
   0.62386619  0.50000000  0.43742715
   0.87624317  0.50000000  0.43844842
   0.62510735  0.00000000  0.31338678
   0.87341924  0.00000000  0.31291359
   0.50045744  0.50000000  0.31259641
   0.75002498  0.50000000  0.31346642
   0.50034947  0.00000000  0.44257753
   0.74990463  0.00000000  0.44311111
   0.50000000  0.50000000  0.13961000
   0.75000000  0.50000000  0.13961000
   0.50000000  0.00000000  0.01461000
   0.75000000  0.00000000  0.01461000
   0.62500000  0.80844000  0.18750000
   0.87500000  0.80844000  0.18750000
   0.62500000  0.30844000  0.06250000
   0.87500000  0.30844000  0.06250000
   0.50000000  0.50000000  0.23539000
   0.75000000  0.50000000  0.23539000
   0.50000000  0.00000000  0.11039000
   0.75000000  0.00000000  0.11039000
   0.62500000  0.19156000  0.18750000
   0.87500000  0.19156000  0.18750000
   0.62500000  0.69156000  0.06250000
   0.87500000  0.69156000  0.06250000
   0.49637292  0.50000000  0.38820110
   0.75023635  0.50000000  0.39130459
   0.50055390  0.00000000  0.26477411
   0.74969253  0.00000000  0.26479777
   0.62530925  0.80779667  0.43785432
   0.87566241  0.80760255  0.44050362
   0.62507443  0.30769013  0.31326226
   0.87484962  0.30809515  0.31340421
   0.50105330  0.50000000  0.48308004
   0.49981702  0.00000000  0.36150090
   0.75028798  0.00000000  0.36194136
   0.62530925  0.19220333  0.43785432
   0.87566241  0.19239745  0.44050362
   0.62507443  0.69230987  0.31326226
   0.87484962  0.69190485  0.31340421
   0.74842765  0.00000000  0.51280347
   0.50217689  0.00000000  0.51206302
 
 position of ions in cartesian coordinates  (Angst):
   1.60106650  3.23512150  4.85268225
   4.80319950  3.23512150  4.85268225
   1.60106650  0.00000000  1.61756075
   4.80319950  0.00000000  1.61756075
   0.00000000  3.23512150  1.61756075
   3.20213300  3.23512150  1.61756075
   0.00000000  0.00000000  4.85268225
   3.20213300  0.00000000  4.85268225
   1.60733734  3.23512150 11.35406173
   4.80574719  3.23512150 11.33885447
   1.60076868  0.00000000  8.06975860
   4.82637002  0.00000000  8.08973268
  12.80456390  3.23512150  8.09730101
   3.20411660  3.23512150  8.09109488
  12.80270033  0.00000000 11.26025623
   3.20184003  0.00000000 11.24950650
   0.00000000  3.23512150  3.61324250
   3.20213300  3.23512150  3.61324250
   0.00000000  0.00000000  0.37812100
   3.20213300  0.00000000  0.37812100
   1.60106650  5.23080325  4.85268225
   4.80319950  5.23080325  4.85268225
   1.60106650  1.99568175  1.61756075
   4.80319950  1.99568175  1.61756075
   0.00000000  3.23512150  6.09212200
   3.20213300  3.23512150  6.09212200
   0.00000000  0.00000000  2.85700050
   3.20213300  0.00000000  2.85700050
   1.60106650  1.23943975  4.85268225
   4.80319950  1.23943975  4.85268225
   1.60106650  4.47456125  1.61756075
   4.80319950  4.47456125  1.61756075
   0.04699071  3.23512150 10.06135451
   3.20247190  3.23512150 10.07982421
  12.80036484  0.00000000  6.84367683
   3.20888274  0.00000000  6.84222257
   1.60505601  5.24275675 11.40114320
   4.79528026  5.23365365 11.36239004
   1.59986227  1.99513453  8.07510791
   4.81037492  1.99247994  8.07434728
  12.80337596  3.23512150 12.53410706
   3.21542260  3.23512150 12.51782572
   0.00071226  0.00000000  9.30575903
   3.20568895  0.00000000  9.29993979
   1.60505601  1.22748625 11.40114320
   4.79528026  1.23658935 11.36239004
   1.59986227  4.47510847  8.07510791
   4.81037492  4.47776306  8.07434728
   8.00533250  3.23512150  4.85268225
  11.20746550  3.23512150  4.85268225
   8.00533250  0.00000000  1.61756075
  11.20746550  0.00000000  1.61756075
   6.40426600  3.23512150  1.61756075
   9.60639900  3.23512150  1.61756075
   6.40426600  0.00000000  4.85268225
   9.60639900  0.00000000  4.85268225
   7.99081011  3.23512150 11.32103990
  11.22338864  3.23512150 11.34747129
   8.00670753  0.00000000  8.11075448
  11.18721829  0.00000000  8.09850789
   6.41012508  3.23512150  8.09029894
   9.60671901  3.23512150  8.11281566
   6.40874226  0.00000000 11.45433657
   9.60517750  0.00000000 11.46814615
   6.40426600  3.23512150  3.61324250
   9.60639900  3.23512150  3.61324250
   6.40426600  0.00000000  0.37812100
   9.60639900  0.00000000  0.37812100
   8.00533250  5.23080325  4.85268225
  11.20746550  5.23080325  4.85268225
   8.00533250  1.99568175  1.61756075
  11.20746550  1.99568175  1.61756075
   6.40426600  3.23512150  6.09212200
   9.60639900  3.23512150  6.09212200
   6.40426600  0.00000000  2.85700050
   9.60639900  0.00000000  2.85700050
   8.00533250  1.23943975  4.85268225
  11.20746550  1.23943975  4.85268225
   8.00533250  4.47456125  1.61756075
  11.20746550  4.47456125  1.61756075
   6.35780843  3.23512150 10.04702190
   9.60942625  3.23512150 10.12734303
   6.41136069  0.00000000  6.85261142
   9.60246070  0.00000000  6.85322376
   8.00929353  5.22664077 11.33209551
  11.21595001  5.22538475 11.40066194
   8.00628579  1.99082990  8.10753189
  11.20553934  1.99345048  8.11120557
   6.41775720  3.23512150 12.50258090
   6.40192225  0.00000000  9.35599459
   9.61008766  0.00000000  9.36739428
   8.00929353  1.24360223 11.33209551
  11.21595001  1.24485825 11.40066194
   8.00628579  4.47941310  8.10753189
  11.20553934  4.47679252  8.11120557
   9.58625947  0.00000000 13.27185217
   6.43214879  0.00000000 13.25268874
 


--------------------------------------------------------------------------------------------------------


 k-point  1 :   0.0000 0.0000 0.0000  plane waves:   54455
 k-point  2 :   0.3333 0.0000 0.0000  plane waves:   54459
 k-point  3 :   0.0000 0.3333 0.0000  plane waves:   54468
 k-point  4 :   0.3333 0.3333 0.0000  plane waves:   54434

 maximum and minimum number of plane-waves per node :     54468    54434

 maximum number of plane-waves:     54468
 maximum index in each direction: 
   IXMAX=   23   IYMAX=   11   IZMAX=   47
   IXMIN=  -23   IYMIN=  -12   IZMIN=  -47


 serial   3D FFT for wavefunctions
 parallel 3D FFT for charge:
    minimum data exchange during FFTs selected (reduces bandwidth)


 total amount of memory used by VASP MPI-rank0   172196. kBytes
=======================================================================

   base      :      30000. kBytes
   nonlr-proj:      19580. kBytes
   fftplans  :       4196. kBytes
   grid      :      37119. kBytes
   one-center:       3017. kBytes
   wavefun   :      78284. kBytes
 
     INWAV:  cpu time    0.0000: real time    0.0003
 Broyden mixing: mesh for mixing (old mesh)
   NGX = 47   NGY = 23   NGZ = 95
  (NGX  =140   NGY  = 72   NGZ  =288)
  gives a total of 102695 points

 initial charge density was supplied:
 charge density of overlapping atoms calculated
 number of electron     678.0000000 magnetization      58.2000000
 keeping initial charge density in first step


--------------------------------------------------------------------------------------------------------


 Maximum index for non-local projection operator         2433
 Maximum index for augmentation-charges          641 (set IRDMAX)


--------------------------------------------------------------------------------------------------------


 First call to EWALD:  gamma=   0.137
 Maximum number of real-space cells 3x 5x 2
 Maximum number of reciprocal cells 3x 2x 5

    FEWALD:  cpu time    0.0050: real time    0.0051


--------------------------------------- Iteration      1(   1)  ---------------------------------------


    POTLOK:  cpu time    0.1421: real time    0.1489
    SETDIJ:  cpu time    0.0206: real time    0.0221
     EDDAV:  cpu time   15.4505: real time   15.5096
       DOS:  cpu time    0.0017: real time    0.0024
    --------------------------------------------
      LOOP:  cpu time   15.6149: real time   15.6831

 eigenvalue-minimisations  :  7040
 total energy-change (2. order) : 0.7427258E+04  (-0.3048791E+05)
 number of electron     678.0000000 magnetization      58.2000000
 augmentation part      678.0000000 magnetization      58.2000000

 Free energy of the ion-electron system (eV)
  ---------------------------------------------------
  alpha Z        PSCENC =      1757.37337241
  Ewald energy   TEWEN  =    229594.18920783
  -Hartree energ DENC   =   -275172.60588600
  -exchange      EXHF   =         0.00000000
  -V(xc)+E(xc)   XCENC  =      1229.39061495
  PAW double counting   =     40208.51757012   -38987.70090968
  entropy T*S    EENTRO =        -0.05244887
  eigenvalues    EBANDS =      2796.97767611
  atomic energy  EATOM  =     46001.16897960
  Solvation  Ediel_sol  =         0.00000000
  ---------------------------------------------------
  free energy    TOTEN  =      7427.25817647 eV

  energy without entropy =     7427.31062534  energy(sigma->0) =     7427.28440090


--------------------------------------------------------------------------------------------------------




--------------------------------------- Iteration      1(   2)  ---------------------------------------


     EDDAV:  cpu time   16.3934: real time   16.4534
       DOS:  cpu time    0.0009: real time    0.0009
    --------------------------------------------
      LOOP:  cpu time   16.3943: real time   16.4543

 eigenvalue-minimisations  :  7360
 total energy-change (2. order) :-0.6964737E+04  (-0.6420840E+04)
 number of electron     678.0000000 magnetization      58.2000000
 augmentation part      678.0000000 magnetization      58.2000000

 Free energy of the ion-electron system (eV)
  ---------------------------------------------------
  alpha Z        PSCENC =      1757.37337241
  Ewald energy   TEWEN  =    229594.18920783
  -Hartree energ DENC   =   -275172.60588600
  -exchange      EXHF   =         0.00000000
  -V(xc)+E(xc)   XCENC  =      1229.39061495
  PAW double counting   =     40208.51757012   -38987.70090968
  entropy T*S    EENTRO =        -0.04805794
  eigenvalues    EBANDS =     -4167.76417800
  atomic energy  EATOM  =     46001.16897960
  Solvation  Ediel_sol  =         0.00000000
  ---------------------------------------------------
  free energy    TOTEN  =       462.52071329 eV

  energy without entropy =      462.56877123  energy(sigma->0) =      462.54474226


--------------------------------------------------------------------------------------------------------




--------------------------------------- Iteration      1(   3)  ---------------------------------------


     EDDAV:  cpu time   19.8541: real time   19.9129
       DOS:  cpu time    0.0008: real time    0.0008
    --------------------------------------------
      LOOP:  cpu time   19.8549: real time   19.9137

 eigenvalue-minimisations  :  9480
 total energy-change (2. order) :-0.1158741E+04  (-0.1116402E+04)
 number of electron     678.0000000 magnetization      58.2000000
 augmentation part      678.0000000 magnetization      58.2000000

 Free energy of the ion-electron system (eV)
  ---------------------------------------------------
  alpha Z        PSCENC =      1757.37337241
  Ewald energy   TEWEN  =    229594.18920783
  -Hartree energ DENC   =   -275172.60588600
  -exchange      EXHF   =         0.00000000
  -V(xc)+E(xc)   XCENC  =      1229.39061495
  PAW double counting   =     40208.51757012   -38987.70090968
  entropy T*S    EENTRO =        -0.07025799
  eigenvalues    EBANDS =     -5326.48279469
  atomic energy  EATOM  =     46001.16897960
  Solvation  Ediel_sol  =         0.00000000
  ---------------------------------------------------
  free energy    TOTEN  =      -696.22010345 eV

  energy without entropy =     -696.14984546  energy(sigma->0) =     -696.18497446


--------------------------------------------------------------------------------------------------------




--------------------------------------- Iteration      1(   4)  ---------------------------------------


     EDDAV:  cpu time   18.4302: real time   18.4836
       DOS:  cpu time    0.0010: real time    0.0010
    --------------------------------------------
      LOOP:  cpu time   18.4312: real time   18.4846

 eigenvalue-minimisations  :  8720
 total energy-change (2. order) :-0.5205223E+02  (-0.5098941E+02)
 number of electron     678.0000000 magnetization      58.2000000
 augmentation part      678.0000000 magnetization      58.2000000

 Free energy of the ion-electron system (eV)
  ---------------------------------------------------
  alpha Z        PSCENC =      1757.37337241
  Ewald energy   TEWEN  =    229594.18920783
  -Hartree energ DENC   =   -275172.60588600
  -exchange      EXHF   =         0.00000000
  -V(xc)+E(xc)   XCENC  =      1229.39061495
  PAW double counting   =     40208.51757012   -38987.70090968
  entropy T*S    EENTRO =        -0.07933187
  eigenvalues    EBANDS =     -5378.52594750
  atomic energy  EATOM  =     46001.16897960
  Solvation  Ediel_sol  =         0.00000000
  ---------------------------------------------------
  free energy    TOTEN  =      -748.27233015 eV

  energy without entropy =     -748.19299828  energy(sigma->0) =     -748.23266421


--------------------------------------------------------------------------------------------------------




--------------------------------------- Iteration      1(   5)  ---------------------------------------


     EDDAV:  cpu time   18.5343: real time   18.6011
       DOS:  cpu time    0.0009: real time    0.0008
    CHARGE:  cpu time    0.7350: real time    0.7370
    MIXING:  cpu time    0.0033: real time    0.0044
    --------------------------------------------
      LOOP:  cpu time   19.2735: real time   19.3433

 eigenvalue-minimisations  :  8760
 total energy-change (2. order) :-0.1461098E+01  (-0.1454293E+01)
 number of electron     678.0000499 magnetization      54.4231734
 augmentation part      118.4583267 magnetization      45.2512112

 Broyden mixing:
  rms(total) = 0.17272E+02    rms(broyden)= 0.17271E+02
  rms(prec ) = 0.17491E+02
  weight for this iteration     100.00

 Free energy of the ion-electron system (eV)
  ---------------------------------------------------
  alpha Z        PSCENC =      1757.37337241
  Ewald energy   TEWEN  =    229594.18920783
  -Hartree energ DENC   =   -275172.60588600
  -exchange      EXHF   =         0.00000000
  -V(xc)+E(xc)   XCENC  =      1229.39061495
  PAW double counting   =     40208.51757012   -38987.70090968
  entropy T*S    EENTRO =        -0.07963071
  eigenvalues    EBANDS =     -5379.98674695
  atomic energy  EATOM  =     46001.16897960
  Solvation  Ediel_sol  =         0.00000000
  ---------------------------------------------------
  free energy    TOTEN  =      -749.73342844 eV

  energy without entropy =     -749.65379773  energy(sigma->0) =     -749.69361308


--------------------------------------------------------------------------------------------------------




--------------------------------------- Iteration      1(   6)  ---------------------------------------


    POTLOK:  cpu time    0.1158: real time    0.1283
    SETDIJ:  cpu time    0.0201: real time    0.0201
    EDDIAG:  cpu time    3.0669: real time    3.0845
  RMM-DIIS:  cpu time    8.3018: real time    8.3241
    ORTHCH:  cpu time    0.7362: real time    0.7381
       DOS:  cpu time    0.0009: real time    0.0009
    CHARGE:  cpu time    0.7340: real time    0.7400
    MIXING:  cpu time    0.0029: real time    0.0030
    --------------------------------------------
      LOOP:  cpu time   12.9786: real time   13.0389

 eigenvalue-minimisations  :  7071
 total energy-change (2. order) : 0.1234337E+03  (-0.6833753E+02)
 number of electron     678.0000459 magnetization      51.1557729
 augmentation part      128.2704438 magnetization      39.7193908

 Broyden mixing:
  rms(total) = 0.10789E+02    rms(broyden)= 0.10787E+02
  rms(prec ) = 0.11241E+02
  weight for this iteration     100.00

 eigenvalues of (default mixing * dielectric matrix)
  average eigenvalue GAMMA=   0.9757
  0.9757

 Free energy of the ion-electron system (eV)
  ---------------------------------------------------
  alpha Z        PSCENC =      1757.37337241
  Ewald energy   TEWEN  =    229594.18920783
  -Hartree energ DENC   =   -275456.95223574
  -exchange      EXHF   =         0.00000000
  -V(xc)+E(xc)   XCENC  =      1307.33467335
  PAW double counting   =     48051.35235394   -46894.48379044
  entropy T*S    EENTRO =        -0.06168062
  eigenvalues    EBANDS =     -4986.22059694
  atomic energy  EATOM  =     46001.16897960
  Solvation  Ediel_sol  =         0.00000000
  ---------------------------------------------------
  free energy    TOTEN  =      -626.29971661 eV

  energy without entropy =     -626.23803599  energy(sigma->0) =     -626.26887630


--------------------------------------------------------------------------------------------------------




--------------------------------------- Iteration      1(   7)  ---------------------------------------


    POTLOK:  cpu time    0.1149: real time    0.1155
    SETDIJ:  cpu time    0.0201: real time    0.0202
    EDDIAG:  cpu time    3.0710: real time    3.0789
  RMM-DIIS:  cpu time    8.4135: real time    8.4456
    ORTHCH:  cpu time    0.7380: real time    0.7398
       DOS:  cpu time    0.0009: real time    0.0009
    CHARGE:  cpu time    0.7365: real time    0.7385
    MIXING:  cpu time    0.0034: real time    0.0034
    --------------------------------------------
      LOOP:  cpu time   13.0984: real time   13.1427

 eigenvalue-minimisations  :  7214
 total energy-change (2. order) :-0.2173425E+03  (-0.2863559E+02)
 number of electron     678.0000420 magnetization      50.3753887
 augmentation part      122.2164809 magnetization      41.3661314

 Broyden mixing:
  rms(total) = 0.25531E+02    rms(broyden)= 0.25530E+02
  rms(prec ) = 0.28072E+02
  weight for this iteration     100.00

 eigenvalues of (default mixing * dielectric matrix)
  average eigenvalue GAMMA=   0.5701
  1.0610  0.0792

 Free energy of the ion-electron system (eV)
  ---------------------------------------------------
  alpha Z        PSCENC =      1757.37337241
  Ewald energy   TEWEN  =    229594.18920783
  -Hartree energ DENC   =   -276325.46695363
  -exchange      EXHF   =         0.00000000
  -V(xc)+E(xc)   XCENC  =      1279.56144998
  PAW double counting   =     53371.51782500   -52221.78721814
  entropy T*S    EENTRO =        -0.05991379
  eigenvalues    EBANDS =     -4300.13892129
  atomic energy  EATOM  =     46001.16897960
  Solvation  Ediel_sol  =         0.00000000
  ---------------------------------------------------
  free energy    TOTEN  =      -843.64217204 eV

  energy without entropy =     -843.58225825  energy(sigma->0) =     -843.61221515


--------------------------------------------------------------------------------------------------------




--------------------------------------- Iteration      1(   8)  ---------------------------------------


    POTLOK:  cpu time    0.1210: real time    0.1229
    SETDIJ:  cpu time    0.0203: real time    0.0204
    EDDIAG:  cpu time    3.0681: real time    3.0785
  RMM-DIIS:  cpu time    8.2813: real time    8.3036
    ORTHCH:  cpu time    0.7366: real time    0.7384
       DOS:  cpu time    0.0009: real time    0.0009
    CHARGE:  cpu time    0.7297: real time    0.7321
    MIXING:  cpu time    0.0034: real time    0.0034
    --------------------------------------------
      LOOP:  cpu time   12.9613: real time   13.0002

 eigenvalue-minimisations  :  7056
 total energy-change (2. order) : 0.1435709E+03  (-0.2532177E+01)
 number of electron     678.0000468 magnetization      47.1604521
 augmentation part      122.5027147 magnetization      39.4025620

 Broyden mixing:
  rms(total) = 0.92654E+01    rms(broyden)= 0.92645E+01
  rms(prec ) = 0.10280E+02
  weight for this iteration     100.00

 eigenvalues of (default mixing * dielectric matrix)
  average eigenvalue GAMMA=   0.6828
  1.4209  0.4923  0.1352

 Free energy of the ion-electron system (eV)
  ---------------------------------------------------
  alpha Z        PSCENC =      1757.37337241
  Ewald energy   TEWEN  =    229594.18920783
  -Hartree energ DENC   =   -276194.95941262
  -exchange      EXHF   =         0.00000000
  -V(xc)+E(xc)   XCENC  =      1279.82925138
  PAW double counting   =     54699.84653532   -53553.45678058
  entropy T*S    EENTRO =        -0.06102673
  eigenvalues    EBANDS =     -4284.00142215
  atomic energy  EATOM  =     46001.16897960
  Solvation  Ediel_sol  =         0.00000000
  ---------------------------------------------------
  free energy    TOTEN  =      -700.07129553 eV

  energy without entropy =     -700.01026881  energy(sigma->0) =     -700.04078217


--------------------------------------------------------------------------------------------------------




--------------------------------------- Iteration      1(   9)  ---------------------------------------


    POTLOK:  cpu time    0.1160: real time    0.1185
    SETDIJ:  cpu time    0.0199: real time    0.0200
    EDDIAG:  cpu time    3.0668: real time    3.0746
  RMM-DIIS:  cpu time    8.2801: real time    8.3046
    ORTHCH:  cpu time    0.7358: real time    0.7375
       DOS:  cpu time    0.0009: real time    0.0009
    CHARGE:  cpu time    0.7292: real time    0.7311
    MIXING:  cpu time    0.0033: real time    0.0033
    --------------------------------------------
      LOOP:  cpu time   12.9519: real time   12.9905

 eigenvalue-minimisations  :  7056
 total energy-change (2. order) :-0.7183428E+02  (-0.1241344E+02)
 number of electron     678.0000457 magnetization      46.0269914
 augmentation part      123.0721154 magnetization      39.4806688

 Broyden mixing:
  rms(total) = 0.19184E+02    rms(broyden)= 0.19183E+02
  rms(prec ) = 0.21787E+02
  weight for this iteration     100.00

 eigenvalues of (default mixing * dielectric matrix)
  average eigenvalue GAMMA=   0.5812
  1.5928  0.5011  0.1358  0.0949

 Free energy of the ion-electron system (eV)
  ---------------------------------------------------
  alpha Z        PSCENC =      1757.37337241
  Ewald energy   TEWEN  =    229594.18920783
  -Hartree energ DENC   =   -275244.48308393
  -exchange      EXHF   =         0.00000000
  -V(xc)+E(xc)   XCENC  =      1284.11575507
  PAW double counting   =     57394.58214837   -56261.86149853
  entropy T*S    EENTRO =        -0.06788714
  eigenvalues    EBANDS =     -5296.92256928
  atomic energy  EATOM  =     46001.16897960
  Solvation  Ediel_sol  =         0.00000000
  ---------------------------------------------------
  free energy    TOTEN  =      -771.90557560 eV

  energy without entropy =     -771.83768846  energy(sigma->0) =     -771.87163203


--------------------------------------------------------------------------------------------------------




--------------------------------------- Iteration      1(  10)  ---------------------------------------


    POTLOK:  cpu time    0.1151: real time    0.1157
    SETDIJ:  cpu time    0.0200: real time    0.0200
    EDDIAG:  cpu time    3.0643: real time    3.0728
  RMM-DIIS:  cpu time    8.5170: real time    8.5399
    ORTHCH:  cpu time    0.7334: real time    0.7352
       DOS:  cpu time    0.0009: real time    0.0009
    CHARGE:  cpu time    0.7363: real time    0.7381
    MIXING:  cpu time    0.0035: real time    0.0036
    --------------------------------------------
      LOOP:  cpu time   13.1905: real time   13.2262

 eigenvalue-minimisations  :  7248
 total energy-change (2. order) : 0.1357386E+03  (-0.1593794E+01)
 number of electron     678.0000501 magnetization      44.1017929
 augmentation part      122.8363710 magnetization      35.4823292

 Broyden mixing:
  rms(total) = 0.89674E+01    rms(broyden)= 0.89667E+01
  rms(prec ) = 0.96375E+01
  weight for this iteration     100.00

 eigenvalues of (default mixing * dielectric matrix)
  average eigenvalue GAMMA=   0.5917
  1.8469  0.4792  0.2559  0.2559  0.1208

 Free energy of the ion-electron system (eV)
  ---------------------------------------------------
  alpha Z        PSCENC =      1757.37337241
  Ewald energy   TEWEN  =    229594.18920783
  -Hartree energ DENC   =   -275391.70542012
  -exchange      EXHF   =         0.00000000
  -V(xc)+E(xc)   XCENC  =      1285.89302159
  PAW double counting   =     58631.06695612   -57502.47335421
  entropy T*S    EENTRO =        -0.07010737
  eigenvalues    EBANDS =     -5011.60968059
  atomic energy  EATOM  =     46001.16897960
  Solvation  Ediel_sol  =         0.00000000
  ---------------------------------------------------
  free energy    TOTEN  =      -636.16702476 eV

  energy without entropy =     -636.09691738  energy(sigma->0) =     -636.13197107


--------------------------------------------------------------------------------------------------------




--------------------------------------- Iteration      1(  11)  ---------------------------------------


    POTLOK:  cpu time    0.1170: real time    0.1258
    SETDIJ:  cpu time    0.0200: real time    0.0201
    EDDIAG:  cpu time    3.0653: real time    3.0743
  RMM-DIIS:  cpu time    8.2852: real time    8.3075
    ORTHCH:  cpu time    0.7358: real time    0.7383
       DOS:  cpu time    0.0009: real time    0.0009
    CHARGE:  cpu time    0.7296: real time    0.7314
    MIXING:  cpu time    0.0037: real time    0.0037
    --------------------------------------------
      LOOP:  cpu time   12.9575: real time   13.0021

 eigenvalue-minimisations  :  7041
 total energy-change (2. order) :-0.5661497E+02  (-0.4721255E+01)
 number of electron     678.0000447 magnetization      42.7918366
 augmentation part      123.3016384 magnetization      36.4800580

 Broyden mixing:
  rms(total) = 0.11618E+02    rms(broyden)= 0.11618E+02
  rms(prec ) = 0.14784E+02
  weight for this iteration     100.00

 eigenvalues of (default mixing * dielectric matrix)
  average eigenvalue GAMMA=   0.5719
  1.8939  0.5321  0.5321  0.1840  0.1840  0.1053

 Free energy of the ion-electron system (eV)
  ---------------------------------------------------
  alpha Z        PSCENC =      1757.37337241
  Ewald energy   TEWEN  =    229594.18920783
  -Hartree energ DENC   =   -275573.49246453
  -exchange      EXHF   =         0.00000000
  -V(xc)+E(xc)   XCENC  =      1287.27700493
  PAW double counting   =     60369.74743476   -59249.26614026
  entropy T*S    EENTRO =        -0.04838971
  eigenvalues    EBANDS =     -4879.73100299
  atomic energy  EATOM  =     46001.16897960
  Solvation  Ediel_sol  =         0.00000000
  ---------------------------------------------------
  free energy    TOTEN  =      -692.78199798 eV

  energy without entropy =     -692.73360827  energy(sigma->0) =     -692.75780313


--------------------------------------------------------------------------------------------------------




--------------------------------------- Iteration      1(  12)  ---------------------------------------


    POTLOK:  cpu time    0.1143: real time    0.1148
    SETDIJ:  cpu time    0.0200: real time    0.0200
    EDDIAG:  cpu time    3.0607: real time    3.0685
  RMM-DIIS:  cpu time    8.2994: real time    8.3307
    ORTHCH:  cpu time    0.7390: real time    0.7409
       DOS:  cpu time    0.0009: real time    0.0009
    CHARGE:  cpu time    0.7389: real time    0.7407
    MIXING:  cpu time    0.0040: real time    0.0040
    --------------------------------------------
      LOOP:  cpu time   12.9772: real time   13.0206

 eigenvalue-minimisations  :  7082
 total energy-change (2. order) : 0.6748559E+02  (-0.1797164E+01)
 number of electron     678.0000479 magnetization      41.1645590
 augmentation part      123.0350719 magnetization      34.2841901

 Broyden mixing:
  rms(total) = 0.59699E+01    rms(broyden)= 0.59689E+01
  rms(prec ) = 0.73985E+01
  weight for this iteration     100.00

 eigenvalues of (default mixing * dielectric matrix)
  average eigenvalue GAMMA=   0.5721
  1.9362  0.6586  0.6586  0.2207  0.2207  0.2013  0.1082

 Free energy of the ion-electron system (eV)
  ---------------------------------------------------
  alpha Z        PSCENC =      1757.37337241
  Ewald energy   TEWEN  =    229594.18920783
  -Hartree energ DENC   =   -275810.63985079
  -exchange      EXHF   =         0.00000000
  -V(xc)+E(xc)   XCENC  =      1288.87770792
  PAW double counting   =     60575.02380322   -59456.01442706
  entropy T*S    EENTRO =        -0.07350909
  eigenvalues    EBANDS =     -4575.20169312
  atomic energy  EATOM  =     46001.16897960
  Solvation  Ediel_sol  =         0.00000000
  ---------------------------------------------------
  free energy    TOTEN  =      -625.29640908 eV

  energy without entropy =     -625.22289999  energy(sigma->0) =     -625.25965454


--------------------------------------------------------------------------------------------------------




--------------------------------------- Iteration      1(  13)  ---------------------------------------


    POTLOK:  cpu time    0.1150: real time    0.1165
    SETDIJ:  cpu time    0.0200: real time    0.0201
    EDDIAG:  cpu time    3.0580: real time    3.0669
  RMM-DIIS:  cpu time    8.2933: real time    8.3156
    ORTHCH:  cpu time    0.7370: real time    0.7421
       DOS:  cpu time    0.0009: real time    0.0009
    CHARGE:  cpu time    0.7308: real time    0.7325
    MIXING:  cpu time    0.0042: real time    0.0042
    --------------------------------------------
      LOOP:  cpu time   12.9593: real time   12.9989

 eigenvalue-minimisations  :  7047
 total energy-change (2. order) : 0.2036621E+02  (-0.1260087E+01)
 number of electron     678.0000487 magnetization      39.7836492
 augmentation part      124.0330466 magnetization      33.7033222

 Broyden mixing:
  rms(total) = 0.36942E+01    rms(broyden)= 0.36917E+01
  rms(prec ) = 0.39963E+01
  weight for this iteration     100.00

 eigenvalues of (default mixing * dielectric matrix)
  average eigenvalue GAMMA=   0.5462
  2.0708  0.5852  0.5852  0.4037  0.2228  0.2228  0.1715  0.1078

 Free energy of the ion-electron system (eV)
  ---------------------------------------------------
  alpha Z        PSCENC =      1757.37337241
  Ewald energy   TEWEN  =    229594.18920783
  -Hartree energ DENC   =   -275533.86687041
  -exchange      EXHF   =         0.00000000
  -V(xc)+E(xc)   XCENC  =      1288.90336720
  PAW double counting   =     60729.21253603   -59612.98327884
  entropy T*S    EENTRO =        -0.06397820
  eigenvalues    EBANDS =     -4828.86353484
  atomic energy  EATOM  =     46001.16897960
  Solvation  Ediel_sol  =         0.00000000
  ---------------------------------------------------
  free energy    TOTEN  =      -604.93019922 eV

  energy without entropy =     -604.86622102  energy(sigma->0) =     -604.89821012


--------------------------------------------------------------------------------------------------------




--------------------------------------- Iteration      1(  14)  ---------------------------------------


    POTLOK:  cpu time    0.1150: real time    0.1155
    SETDIJ:  cpu time    0.0200: real time    0.0201
    EDDIAG:  cpu time    3.1005: real time    3.1219
  RMM-DIIS:  cpu time    8.2779: real time    8.3002
    ORTHCH:  cpu time    0.7446: real time    0.7465
       DOS:  cpu time    0.0011: real time    0.0011
    CHARGE:  cpu time    0.7382: real time    0.7400
    MIXING:  cpu time    0.0054: real time    0.0054
    --------------------------------------------
      LOOP:  cpu time   13.0026: real time   13.0506

 eigenvalue-minimisations  :  7057
 total energy-change (2. order) : 0.5938553E+01  (-0.5343606E+00)
 number of electron     678.0000473 magnetization      39.0716049
 augmentation part      123.6846974 magnetization      31.2213765

 Broyden mixing:
  rms(total) = 0.29319E+01    rms(broyden)= 0.29306E+01
  rms(prec ) = 0.31782E+01
  weight for this iteration     100.00

 eigenvalues of (default mixing * dielectric matrix)
  average eigenvalue GAMMA=   0.5287
  2.1189  0.6229  0.4838  0.4838  0.3238  0.2193  0.2193  0.1788  0.1079

 Free energy of the ion-electron system (eV)
  ---------------------------------------------------
  alpha Z        PSCENC =      1757.37337241
  Ewald energy   TEWEN  =    229594.18920783
  -Hartree energ DENC   =   -275554.63166985
  -exchange      EXHF   =         0.00000000
  -V(xc)+E(xc)   XCENC  =      1288.70113431
  PAW double counting   =     61219.66918637   -60106.40574499
  entropy T*S    EENTRO =        -0.07998138
  eigenvalues    EBANDS =     -4798.97613050
  atomic energy  EATOM  =     46001.16897960
  Solvation  Ediel_sol  =         0.00000000
  ---------------------------------------------------
  free energy    TOTEN  =      -598.99164621 eV

  energy without entropy =     -598.91166483  energy(sigma->0) =     -598.95165552


--------------------------------------------------------------------------------------------------------




--------------------------------------- Iteration      1(  15)  ---------------------------------------


    POTLOK:  cpu time    0.1178: real time    0.1214
    SETDIJ:  cpu time    0.0203: real time    0.0203
    EDDIAG:  cpu time    3.0639: real time    3.0731
  RMM-DIIS:  cpu time    8.2861: real time    8.3082
    ORTHCH:  cpu time    0.7348: real time    0.7368
       DOS:  cpu time    0.0009: real time    0.0009
    CHARGE:  cpu time    0.7324: real time    0.7350
    MIXING:  cpu time    0.0046: real time    0.0046
    --------------------------------------------
      LOOP:  cpu time   12.9608: real time   13.0004

 eigenvalue-minimisations  :  7042
 total energy-change (2. order) : 0.2696975E+00  (-0.2377400E+00)
 number of electron     678.0000483 magnetization      38.2069152
 augmentation part      123.8717053 magnetization      30.1388702

 Broyden mixing:
[...]
      8.009294  1.243602 11.332096            0           0           0  
     11.215950  1.244858 11.400662            0           0           0  
      8.006286  4.479413  8.107532            0           0           0  
     11.205539  4.476793  8.111206            0           0           0  
      9.586259  0.000000 13.271852    -0.001779   -0.999917   -0.000114  
      6.432149  0.000000 13.252689     0.000146   -0.012730   -0.000015  
 
   5 f  =    4.979021 THz    31.284109 2PiTHz  166.082247 cm-1    20.591582 meV
             X         Y         Z           dx          dy          dz
      1.601066  3.235121  4.852682            0           0           0  
      4.803199  3.235121  4.852682            0           0           0  
      1.601066  0.000000  1.617561            0           0           0  
      4.803199  0.000000  1.617561            0           0           0  
      0.000000  3.235121  1.617561            0           0           0  
      3.202133  3.235121  1.617561            0           0           0  
      0.000000  0.000000  4.852682            0           0           0  
      3.202133  0.000000  4.852682            0           0           0  
      1.607337  3.235121 11.354062            0           0           0  
      4.805747  3.235121 11.338854            0           0           0  
      1.600769  0.000000  8.069759            0           0           0  
      4.826370  0.000000  8.089733            0           0           0  
     12.804564  3.235121  8.097301            0           0           0  
      3.204117  3.235121  8.091095            0           0           0  
     12.802700  0.000000 11.260256            0           0           0  
      3.201840  0.000000 11.249506            0           0           0  
      0.000000  3.235121  3.613243            0           0           0  
      3.202133  3.235121  3.613243            0           0           0  
      0.000000  0.000000  0.378121            0           0           0  
      3.202133  0.000000  0.378121            0           0           0  
      1.601066  5.230803  4.852682            0           0           0  
      4.803199  5.230803  4.852682            0           0           0  
      1.601066  1.995682  1.617561            0           0           0  
      4.803199  1.995682  1.617561            0           0           0  
      0.000000  3.235121  6.092122            0           0           0  
      3.202133  3.235121  6.092122            0           0           0  
      0.000000  0.000000  2.857000            0           0           0  
      3.202133  0.000000  2.857000            0           0           0  
      1.601066  1.239440  4.852682            0           0           0  
      4.803199  1.239440  4.852682            0           0           0  
      1.601066  4.474561  1.617561            0           0           0  
      4.803199  4.474561  1.617561            0           0           0  
      0.046991  3.235121 10.061355            0           0           0  
      3.202472  3.235121 10.079824            0           0           0  
     12.800365  0.000000  6.843677            0           0           0  
      3.208883  0.000000  6.842223            0           0           0  
      1.605056  5.242757 11.401143            0           0           0  
      4.795280  5.233654 11.362390            0           0           0  
      1.599862  1.995135  8.075108            0           0           0  
      4.810375  1.992480  8.074347            0           0           0  
     12.803376  3.235121 12.534107            0           0           0  
      3.215423  3.235121 12.517826            0           0           0  
      0.000712  0.000000  9.305759            0           0           0  
      3.205689  0.000000  9.299940            0           0           0  
      1.605056  1.227486 11.401143            0           0           0  
      4.795280  1.236589 11.362390            0           0           0  
      1.599862  4.475108  8.075108            0           0           0  
      4.810375  4.477763  8.074347            0           0           0  
      8.005332  3.235121  4.852682            0           0           0  
     11.207465  3.235121  4.852682            0           0           0  
      8.005332  0.000000  1.617561            0           0           0  
     11.207465  0.000000  1.617561            0           0           0  
      6.404266  3.235121  1.617561            0           0           0  
      9.606399  3.235121  1.617561            0           0           0  
      6.404266  0.000000  4.852682            0           0           0  
      9.606399  0.000000  4.852682            0           0           0  
      7.990810  3.235121 11.321040            0           0           0  
     11.223389  3.235121 11.347471            0           0           0  
      8.006708  0.000000  8.110754            0           0           0  
     11.187218  0.000000  8.098508            0           0           0  
      6.410125  3.235121  8.090299            0           0           0  
      9.606719  3.235121  8.112816            0           0           0  
      6.408742  0.000000 11.454337            0           0           0  
      9.605177  0.000000 11.468146            0           0           0  
      6.404266  3.235121  3.613243            0           0           0  
      9.606399  3.235121  3.613243            0           0           0  
      6.404266  0.000000  0.378121            0           0           0  
      9.606399  0.000000  0.378121            0           0           0  
      8.005332  5.230803  4.852682            0           0           0  
     11.207465  5.230803  4.852682            0           0           0  
      8.005332  1.995682  1.617561            0           0           0  
     11.207465  1.995682  1.617561            0           0           0  
      6.404266  3.235121  6.092122            0           0           0  
      9.606399  3.235121  6.092122            0           0           0  
      6.404266  0.000000  2.857000            0           0           0  
      9.606399  0.000000  2.857000            0           0           0  
      8.005332  1.239440  4.852682            0           0           0  
     11.207465  1.239440  4.852682            0           0           0  
      8.005332  4.474561  1.617561            0           0           0  
     11.207465  4.474561  1.617561            0           0           0  
      6.357808  3.235121 10.047022            0           0           0  
      9.609426  3.235121 10.127343            0           0           0  
      6.411361  0.000000  6.852611            0           0           0  
      9.602461  0.000000  6.853224            0           0           0  
      8.009294  5.226641 11.332096            0           0           0  
     11.215950  5.225385 11.400662            0           0           0  
      8.006286  1.990830  8.107532            0           0           0  
     11.205539  1.993450  8.111206            0           0           0  
      6.417757  3.235121 12.502581            0           0           0  
      6.401922  0.000000  9.355995            0           0           0  
      9.610088  0.000000  9.367394            0           0           0  
      8.009294  1.243602 11.332096            0           0           0  
     11.215950  1.244858 11.400662            0           0           0  
      8.006286  4.479413  8.107532            0           0           0  
     11.205539  4.476793  8.111206            0           0           0  
      9.586259  0.000000 13.271852     0.005627    0.000144    0.000741  
      6.432149  0.000000 13.252689     0.999593   -0.000555   -0.027955  
 
   6 f  =    4.354238 THz    27.358482 2PiTHz  145.241732 cm-1    18.007686 meV
             X         Y         Z           dx          dy          dz
      1.601066  3.235121  4.852682            0           0           0  
      4.803199  3.235121  4.852682            0           0           0  
      1.601066  0.000000  1.617561            0           0           0  
      4.803199  0.000000  1.617561            0           0           0  
      0.000000  3.235121  1.617561            0           0           0  
      3.202133  3.235121  1.617561            0           0           0  
      0.000000  0.000000  4.852682            0           0           0  
      3.202133  0.000000  4.852682            0           0           0  
      1.607337  3.235121 11.354062            0           0           0  
      4.805747  3.235121 11.338854            0           0           0  
      1.600769  0.000000  8.069759            0           0           0  
      4.826370  0.000000  8.089733            0           0           0  
     12.804564  3.235121  8.097301            0           0           0  
      3.204117  3.235121  8.091095            0           0           0  
     12.802700  0.000000 11.260256            0           0           0  
      3.201840  0.000000 11.249506            0           0           0  
      0.000000  3.235121  3.613243            0           0           0  
      3.202133  3.235121  3.613243            0           0           0  
      0.000000  0.000000  0.378121            0           0           0  
      3.202133  0.000000  0.378121            0           0           0  
      1.601066  5.230803  4.852682            0           0           0  
      4.803199  5.230803  4.852682            0           0           0  
      1.601066  1.995682  1.617561            0           0           0  
      4.803199  1.995682  1.617561            0           0           0  
      0.000000  3.235121  6.092122            0           0           0  
      3.202133  3.235121  6.092122            0           0           0  
      0.000000  0.000000  2.857000            0           0           0  
      3.202133  0.000000  2.857000            0           0           0  
      1.601066  1.239440  4.852682            0           0           0  
      4.803199  1.239440  4.852682            0           0           0  
      1.601066  4.474561  1.617561            0           0           0  
      4.803199  4.474561  1.617561            0           0           0  
      0.046991  3.235121 10.061355            0           0           0  
      3.202472  3.235121 10.079824            0           0           0  
     12.800365  0.000000  6.843677            0           0           0  
      3.208883  0.000000  6.842223            0           0           0  
      1.605056  5.242757 11.401143            0           0           0  
      4.795280  5.233654 11.362390            0           0           0  
      1.599862  1.995135  8.075108            0           0           0  
      4.810375  1.992480  8.074347            0           0           0  
     12.803376  3.235121 12.534107            0           0           0  
      3.215423  3.235121 12.517826            0           0           0  
      0.000712  0.000000  9.305759            0           0           0  
      3.205689  0.000000  9.299940            0           0           0  
      1.605056  1.227486 11.401143            0           0           0  
      4.795280  1.236589 11.362390            0           0           0  
      1.599862  4.475108  8.075108            0           0           0  
      4.810375  4.477763  8.074347            0           0           0  
      8.005332  3.235121  4.852682            0           0           0  
     11.207465  3.235121  4.852682            0           0           0  
      8.005332  0.000000  1.617561            0           0           0  
     11.207465  0.000000  1.617561            0           0           0  
      6.404266  3.235121  1.617561            0           0           0  
      9.606399  3.235121  1.617561            0           0           0  
      6.404266  0.000000  4.852682            0           0           0  
      9.606399  0.000000  4.852682            0           0           0  
      7.990810  3.235121 11.321040            0           0           0  
     11.223389  3.235121 11.347471            0           0           0  
      8.006708  0.000000  8.110754            0           0           0  
     11.187218  0.000000  8.098508            0           0           0  
      6.410125  3.235121  8.090299            0           0           0  
      9.606719  3.235121  8.112816            0           0           0  
      6.408742  0.000000 11.454337            0           0           0  
      9.605177  0.000000 11.468146            0           0           0  
      6.404266  3.235121  3.613243            0           0           0  
      9.606399  3.235121  3.613243            0           0           0  
      6.404266  0.000000  0.378121            0           0           0  
      9.606399  0.000000  0.378121            0           0           0  
      8.005332  5.230803  4.852682            0           0           0  
     11.207465  5.230803  4.852682            0           0           0  
      8.005332  1.995682  1.617561            0           0           0  
     11.207465  1.995682  1.617561            0           0           0  
      6.404266  3.235121  6.092122            0           0           0  
      9.606399  3.235121  6.092122            0           0           0  
      6.404266  0.000000  2.857000            0           0           0  
      9.606399  0.000000  2.857000            0           0           0  
      8.005332  1.239440  4.852682            0           0           0  
     11.207465  1.239440  4.852682            0           0           0  
      8.005332  4.474561  1.617561            0           0           0  
     11.207465  4.474561  1.617561            0           0           0  
      6.357808  3.235121 10.047022            0           0           0  
      9.609426  3.235121 10.127343            0           0           0  
      6.411361  0.000000  6.852611            0           0           0  
      9.602461  0.000000  6.853224            0           0           0  
      8.009294  5.226641 11.332096            0           0           0  
     11.215950  5.225385 11.400662            0           0           0  
      8.006286  1.990830  8.107532            0           0           0  
     11.205539  1.993450  8.111206            0           0           0  
      6.417757  3.235121 12.502581            0           0           0  
      6.401922  0.000000  9.355995            0           0           0  
      9.610088  0.000000  9.367394            0           0           0  
      8.009294  1.243602 11.332096            0           0           0  
     11.215950  1.244858 11.400662            0           0           0  
      8.006286  4.479413  8.107532            0           0           0  
     11.205539  4.476793  8.111206            0           0           0  
      9.586259  0.000000 13.271852     0.000015   -0.012730   -0.000002  
      6.432149  0.000000 13.252689     0.000557    0.999919    0.000000  
 
 Finite differences POTIM=  1.500000000000000E-002
  LATTYP: Found a simple orthorhombic cell.
 ALAT       =     6.4702430000
 B/A-ratio  =     1.9796060210
 C/A-ratio  =     4.0000000000
  
  Lattice vectors:
  
 A1 = (   0.0000000000,  -6.4702430000,   0.0000000000)
 A2 = ( -12.8085320000,   0.0000000000,   0.0000000000)
 A3 = (   0.0000000000,   0.0000000000, -25.8809720000)


Analysis of symmetry for initial positions (statically):
=====================================================================
 Subroutine PRICEL returns:
 Original cell was already a primitive cell.
 

 Routine SETGRP: Setting up the symmetry group for a 
 simple orthorhombic supercell.


 Subroutine GETGRP returns: Found  2 space group operations
 (whereof  2 operations were pure point group operations)
 out of a pool of  8 trial point group operations.


The static configuration has the point symmetry C_1h.


Analysis of symmetry for dynamics (positions and initial velocities):
=====================================================================
 Subroutine PRICEL returns:
 Original cell was already a primitive cell.
 

 Routine SETGRP: Setting up the symmetry group for a 
 simple orthorhombic supercell.


 Subroutine GETGRP returns: Found  2 space group operations
 (whereof  2 operations were pure point group operations)
 out of a pool of  8 trial point group operations.


The dynamic configuration has the point symmetry C_1h.


Analysis of constrained symmetry for selective dynamics:
=====================================================================
 Subroutine PRICEL returns:
 Original cell was already a primitive cell.
 

 Routine SETGRP: Setting up the symmetry group for a 
 simple orthorhombic supercell.


 Subroutine GETGRP returns: Found  2 space group operations
 (whereof  2 operations were pure point group operations)
 out of a pool of  8 trial point group operations.


The constrained configuration has the point symmetry C_1h.


Analysis of structural, dynamic, and magnetic symmetry:
=====================================================================
 Subroutine PRICEL returns:
 Original cell was already a primitive cell.
 

 Routine SETGRP: Setting up the symmetry group for a 
 simple orthorhombic supercell.


 Subroutine GETGRP returns: Found  2 space group operations
 (whereof  2 operations were pure point group operations)
 out of a pool of  8 trial point group operations.


The magnetic configuration has the point symmetry C_1h.


 Subroutine INISYM returns: Found  2 space group operations
 (whereof  2 operations are pure point group operations),
 and found     1 'primitive' translations

 
 KPOINTS: Automatic mesh                          

Automatic generation of k-mesh.
Space group operators:
 irot       det(A)        alpha          n_x          n_y          n_z        tau_x        tau_y        tau_z
    1     1.000000     0.000001     1.000000     0.000000     0.000000     0.000000     0.000000     0.000000
    2    -1.000000   180.000000     0.000000     1.000000     0.000000     0.000000     0.000000     0.000000
 
 Subroutine IBZKPT returns following result:
 ===========================================
 
 Found      4 irreducible k-points:
 
 Following reciprocal coordinates:
            Coordinates               Weight
  0.000000  0.000000  0.000000      1.000000
  0.333333  0.000000  0.000000      2.000000
  0.000000  0.333333  0.000000      2.000000
  0.333333  0.333333  0.000000      4.000000
 
 Following cartesian coordinates:
            Coordinates               Weight
  0.000000  0.000000  0.000000      1.000000
  0.026024  0.000000  0.000000      2.000000
  0.000000  0.051518  0.000000      2.000000
  0.026024  0.051518  0.000000      4.000000
 
     LOOP+:  cpu time  180.2702: real time  180.9474
    4ORBIT:  cpu time    0.0000: real time    0.0000

 total amount of memory used by VASP MPI-rank0   172196. kBytes
=======================================================================

   base      :      30000. kBytes
   nonlr-proj:      19580. kBytes
   fftplans  :       4196. kBytes
   grid      :      37119. kBytes
   one-center:       3017. kBytes
   wavefun   :      78284. kBytes
 
  
  
 General timing and accounting informations for this job:
 ========================================================
  
                  Total CPU time used (sec):     3332.035
                            User time (sec):     3254.980
                          System time (sec):       77.055
                         Elapsed time (sec):     3344.782
  
                   Maximum memory used (kb):      436620.
                   Average memory used (kb):           0.
  
                          Minor page faults:      2023537
                          Major page faults:           48
                 Voluntary context switches:         8711
