<?xml version="1.0" encoding="ISO-8859-1"?>
<modeling>
 <generator>
  <i name="program" type="string">vasp </i>
  <i name="version" type="string">5.4.4.18Apr17-6-g9f103f2a35  </i>
  <i name="subversion" type="string">(build Feb 25 2019 10:51:38) complex            parallel </i>
  <i name="platform" type="string">LinuxIFC </i>
  <i name="date" type="string">2023 03 15 </i>
  <i name="time" type="string">11:26:31 </i>
 </generator>
 <incar>
  <i type="string" name="PREC">normal</i>
  <i type="string" name="ALGO"> Fast</i>
  <i type="int" name="ISPIN">     2</i>
  <i type="int" name="MAXMIX">    60</i>
  <i type="int" name="ICHARG">     2</i>
  <i type="int" name="NELM">    60</i>
  <i type="int" name="NELMIN">     4</i>
  <i type="int" name="IBRION">     5</i>
  <i type="int" name="NFREE">     2</i>
  <i name="EDIFF">      0.00000100</i>
  <i name="EDIFFG">     -0.05000000</i>
  <i type="int" name="NSW">   500</i>
  <i type="int" name="ISIF">     2</i>
  <i name="ENCUT">    500.00000000</i>
  <v name="MAGMOM">      0.60000000      0.60000000      0.60000000      0.60000000      0.60000000      0.60000000      0.60000000      0.60000000      0.60000000      0.60000000      0.60000000      0.60000000      0.60000000      0.60000000      0.60000000      0.60000000      0.60000000      0.60000000      0.60000000      0.60000000
      0.60000000      0.60000000      0.60000000      0.60000000      0.60000000      0.60000000      0.60000000      0.60000000      0.60000000      0.60000000      0.60000000      0.60000000      0.60000000      0.60000000      0.60000000      0.60000000      0.60000000      0.60000000      0.60000000      0.60000000
      0.60000000      0.60000000      0.60000000      0.60000000      0.60000000      0.60000000      0.60000000      0.60000000      0.60000000      0.60000000      0.60000000      0.60000000      0.60000000      0.60000000      0.60000000      0.60000000      0.60000000      0.60000000      0.60000000      0.60000000
      0.60000000      0.60000000      0.60000000      0.60000000      0.60000000      0.60000000      0.60000000      0.60000000      0.60000000      0.60000000      0.60000000      0.60000000      0.60000000      0.60000000      0.60000000      0.60000000      0.60000000      0.60000000      0.60000000      0.60000000
      0.60000000      0.60000000      0.60000000      0.60000000      0.60000000      0.60000000      0.60000000      0.60000000      0.60000000      0.60000000      0.60000000      0.60000000      0.60000000      0.60000000      0.60000000      0.60000000      0.60000000</v>
  <i type="string" name="LREAL"> Auto</i>
  <i type="int" name="ISMEAR">     0</i>
  <i name="SIGMA">      0.05000000</i>
  <i type="logical" name="LWAVE"> F  </i>
  <i type="logical" name="LCHARG"> F  </i>
  <i type="logical" name="LVHAR"> T  </i>
  <v type="int" name="KPOINT_BSE">    -1     0     0     0</v>
  <i type="int" name="NELM">    60</i>
  <i type="string" name="GGA"> Rp</i>
 </incar>
 <structure name="primitive_cell" >
  <crystal>
   <varray name="basis" >
    <v>      12.80853200       0.00000000       0.00000000 </v>
    <v>       0.00000000       6.47024300       0.00000000 </v>
    <v>       0.00000000       0.00000000      25.88097200 </v>
   </varray>
   <i name="volume">   2144.86781344 </i>
   <varray name="rec_basis" >
    <v>       0.07807296       0.00000000       0.00000000 </v>
    <v>       0.00000000       0.15455370       0.00000000 </v>
    <v>       0.00000000       0.00000000       0.03863843 </v>
   </varray>
  </crystal>
  <varray name="positions" >
   <v>       0.12500000      -0.50000000       0.18750000 </v>
   <v>       0.12500000      -0.19156000       0.18750000 </v>
   <v>       0.12500000       0.19156000       0.18750000 </v>
   <v>       0.00000000      -0.50000000       0.13961000 </v>
   <v>       0.25000000      -0.50000000       0.13961000 </v>
   <v>       0.00000000      -0.50000000       0.23539000 </v>
   <v>       0.25000000      -0.50000000       0.23539000 </v>
   <v>       0.37500000      -0.50000000       0.18750000 </v>
   <v>      -0.12500000      -0.50000000       0.18750000 </v>
   <v>       0.12490598       0.30835543       0.31200945 </v>
   <v>       0.12490598      -0.30835543       0.31200945 </v>
   <v>       0.12500000       0.30844000       0.06250000 </v>
   <v>       0.12500000      -0.30844000       0.06250000 </v>
   <v>       0.00000000      -0.50000000       0.06250000 </v>
   <v>       0.25000000      -0.50000000       0.06250000 </v>
   <v>       0.00000000       0.00000000       0.18750000 </v>
   <v>       0.25000000       0.00000000       0.18750000 </v>
   <v>       0.25015487      -0.50000000       0.31262716 </v>
   <v>      -0.00030980      -0.50000000       0.31286696 </v>
   <v>       0.37500000      -0.19156000       0.18750000 </v>
   <v>       0.37500000       0.19156000       0.18750000 </v>
   <v>      -0.12500000      -0.19156000       0.18750000 </v>
   <v>      -0.12500000       0.19156000       0.18750000 </v>
   <v>       0.25052697       0.00000000       0.26437270 </v>
   <v>       0.00000000       0.00000000       0.11039000 </v>
   <v>       0.25000000       0.00000000       0.11039000 </v>
   <v>      -0.00063763       0.00000000       0.26442890 </v>
   <v>       0.12497675       0.00000000       0.31180276 </v>
   <v>       0.12500000       0.00000000       0.06250000 </v>
   <v>       0.37556021       0.30794515       0.31198006 </v>
   <v>       0.37556021      -0.30794515       0.31198006 </v>
   <v>       0.37500000       0.30844000       0.06250000 </v>
   <v>       0.37500000      -0.30844000       0.06250000 </v>
   <v>      -0.12500000       0.30844000       0.06250000 </v>
   <v>      -0.12500000      -0.30844000       0.06250000 </v>
   <v>      -0.12515038       0.30809515       0.31340421 </v>
   <v>      -0.12515038      -0.30809515       0.31340421 </v>
   <v>      -0.50000000      -0.50000000       0.13961000 </v>
   <v>      -0.25000000      -0.50000000       0.13961000 </v>
   <v>      -0.50000000      -0.50000000       0.23539000 </v>
   <v>      -0.25000000      -0.50000000       0.23539000 </v>
   <v>       0.00366870      -0.50000000       0.38875489 </v>
   <v>       0.25002646      -0.50000000       0.38946853 </v>
   <v>       0.37500000       0.00000000       0.06250000 </v>
   <v>      -0.12500000       0.00000000       0.06250000 </v>
   <v>       0.37680899       0.00000000       0.31257453 </v>
   <v>      -0.12658076       0.00000000       0.31291359 </v>
   <v>       0.25027762       0.00000000       0.35933503 </v>
   <v>       0.00005561       0.00000000       0.35955987 </v>
   <v>       0.00000000       0.00000000       0.01461000 </v>
   <v>       0.25000000       0.00000000       0.01461000 </v>
   <v>      -0.50000000      -0.50000000       0.06250000 </v>
   <v>      -0.25000000      -0.50000000       0.06250000 </v>
   <v>      -0.50000000       0.00000000       0.18750000 </v>
   <v>      -0.25000000       0.00000000       0.18750000 </v>
   <v>      -0.49954256      -0.50000000       0.31259641 </v>
   <v>      -0.24997502      -0.50000000       0.31346642 </v>
   <v>      -0.50000000       0.00000000       0.11039000 </v>
   <v>      -0.25000000       0.00000000       0.11039000 </v>
   <v>      -0.25030747       0.00000000       0.26479777 </v>
   <v>      -0.49944610       0.00000000       0.26477411 </v>
   <v>      -0.37500000      -0.50000000       0.18750000 </v>
   <v>       0.12548958      -0.50000000       0.43870306 </v>
   <v>      -0.37500000      -0.19156000       0.18750000 </v>
   <v>      -0.37500000       0.19156000       0.18750000 </v>
   <v>       0.12531147      -0.18971254       0.44052222 </v>
   <v>       0.12531147       0.18971254       0.44052222 </v>
   <v>       0.49637292      -0.50000000       0.38820110 </v>
   <v>      -0.24976365      -0.50000000       0.39130459 </v>
   <v>      -0.12375683      -0.50000000       0.43844842 </v>
   <v>       0.37519891      -0.50000000       0.43811548 </v>
   <v>      -0.37500000       0.30844000       0.06250000 </v>
   <v>      -0.37500000      -0.30844000       0.06250000 </v>
   <v>      -0.37492557       0.30769013       0.31326226 </v>
   <v>      -0.37492557      -0.30769013       0.31326226 </v>
   <v>      -0.50000000       0.00000000       0.01461000 </v>
   <v>      -0.25000000       0.00000000       0.01461000 </v>
   <v>       0.49981702       0.00000000       0.36150090 </v>
   <v>      -0.24971202       0.00000000       0.36194136 </v>
   <v>       0.24997713       0.00000000       0.43466321 </v>
   <v>      -0.00045530       0.00000000       0.43507857 </v>
   <v>       0.37438172      -0.19111946       0.43902486 </v>
   <v>       0.37438172       0.19111946       0.43902486 </v>
   <v>      -0.12433759      -0.19239745       0.44050362 </v>
   <v>      -0.12433759       0.19239745       0.44050362 </v>
   <v>       0.25103756      -0.50000000       0.48366907 </v>
   <v>      -0.00040255      -0.50000000       0.48429816 </v>
   <v>      -0.37500000       0.00000000       0.06250000 </v>
   <v>      -0.37489265       0.00000000       0.31338678 </v>
   <v>      -0.49965053       0.00000000       0.44257753 </v>
   <v>      -0.25009537       0.00000000       0.44311111 </v>
   <v>      -0.49894670      -0.50000000       0.48308004 </v>
   <v>      -0.37613381      -0.50000000       0.43742715 </v>
   <v>      -0.37469075      -0.19220333       0.43785432 </v>
   <v>      -0.37469075       0.19220333       0.43785432 </v>
   <v>      -0.49782311       0.00000000      -0.48793698 </v>
   <v>      -0.25157235       0.00000000      -0.48719653 </v>
  </varray>
 </structure>
 <varray name="primitive_index" >
  <v type="int" >        1 </v>
  <v type="int" >       21 </v>
  <v type="int" >       29 </v>
  <v type="int" >       17 </v>
  <v type="int" >       18 </v>
  <v type="int" >       25 </v>
  <v type="int" >       26 </v>
  <v type="int" >        2 </v>
  <v type="int" >       50 </v>
  <v type="int" >       39 </v>
  <v type="int" >       47 </v>
  <v type="int" >       23 </v>
  <v type="int" >       31 </v>
  <v type="int" >        5 </v>
  <v type="int" >        6 </v>
  <v type="int" >        7 </v>
  <v type="int" >        8 </v>
  <v type="int" >       14 </v>
  <v type="int" >       13 </v>
  <v type="int" >       22 </v>
  <v type="int" >       30 </v>
  <v type="int" >       70 </v>
  <v type="int" >       78 </v>
  <v type="int" >       36 </v>
  <v type="int" >       27 </v>
  <v type="int" >       28 </v>
  <v type="int" >       35 </v>
  <v type="int" >       11 </v>
  <v type="int" >        3 </v>
  <v type="int" >       40 </v>
  <v type="int" >       48 </v>
  <v type="int" >       24 </v>
  <v type="int" >       32 </v>
  <v type="int" >       72 </v>
  <v type="int" >       80 </v>
  <v type="int" >       88 </v>
  <v type="int" >       95 </v>
  <v type="int" >       65 </v>
  <v type="int" >       66 </v>
  <v type="int" >       73 </v>
  <v type="int" >       74 </v>
  <v type="int" >       33 </v>
  <v type="int" >       34 </v>
  <v type="int" >        4 </v>
  <v type="int" >       52 </v>
  <v type="int" >       12 </v>
  <v type="int" >       60 </v>
  <v type="int" >       44 </v>
  <v type="int" >       43 </v>
  <v type="int" >       19 </v>
  <v type="int" >       20 </v>
  <v type="int" >       53 </v>
  <v type="int" >       54 </v>
  <v type="int" >       55 </v>
  <v type="int" >       56 </v>
  <v type="int" >       61 </v>
  <v type="int" >       62 </v>
  <v type="int" >       75 </v>
  <v type="int" >       76 </v>
  <v type="int" >       84 </v>
  <v type="int" >       83 </v>
  <v type="int" >       49 </v>
  <v type="int" >        9 </v>
  <v type="int" >       69 </v>
  <v type="int" >       77 </v>
  <v type="int" >       37 </v>
  <v type="int" >       45 </v>
  <v type="int" >       81 </v>
  <v type="int" >       82 </v>
  <v type="int" >       58 </v>
  <v type="int" >       10 </v>
  <v type="int" >       71 </v>
  <v type="int" >       79 </v>
  <v type="int" >       87 </v>
  <v type="int" >       94 </v>
  <v type="int" >       67 </v>
  <v type="int" >       68 </v>
  <v type="int" >       90 </v>
  <v type="int" >       91 </v>
  <v type="int" >       16 </v>
  <v type="int" >       15 </v>
  <v type="int" >       38 </v>
  <v type="int" >       46 </v>
  <v type="int" >       86 </v>
  <v type="int" >       93 </v>
  <v type="int" >       42 </v>
  <v type="int" >       41 </v>
  <v type="int" >       51 </v>
  <v type="int" >       59 </v>
  <v type="int" >       63 </v>
  <v type="int" >       64 </v>
  <v type="int" >       89 </v>
  <v type="int" >       57 </v>
  <v type="int" >       85 </v>
  <v type="int" >       92 </v>
  <v type="int" >       97 </v>
  <v type="int" >       96 </v>
 </varray>
 <kpoints>
  <generation param="Gamma">
   <v type="int" name="divisions">       3        3        1 </v>
   <v name="usershift">      0.00000000       0.00000000       0.00000000 </v>
   <v name="genvec1">      0.33333333       0.00000000       0.00000000 </v>
   <v name="genvec2">      0.00000000       0.33333333       0.00000000 </v>
   <v name="genvec3">      0.00000000       0.00000000       1.00000000 </v>
   <v name="shift">      0.00000000       0.00000000       0.00000000 </v>
  </generation>
  <varray name="kpointlist" >
   <v>       0.00000000       0.00000000       0.00000000 </v>
   <v>       0.33333333       0.00000000       0.00000000 </v>
   <v>       0.00000000       0.33333333       0.00000000 </v>
   <v>       0.33333333       0.33333333       0.00000000 </v>
  </varray>
  <varray name="weights" >
   <v>       0.11111111 </v>
   <v>       0.22222222 </v>
   <v>       0.22222222 </v>
   <v>       0.44444444 </v>
  </varray>
 </kpoints>
 <parameters>
  <separator name="general" >
   <i type="string" name="SYSTEM">unknown system</i>
   <i type="logical" name="LCOMPAT"> F  </i>
  </separator>
  <separator name="electronic" >
   <i type="string" name="PREC">normal</i>
   <i name="ENMAX">    500.00000000</i>
   <i name="ENAUG">    605.39200000</i>
   <i name="EDIFF">      0.00000100</i>
   <i type="int" name="IALGO">    68</i>
   <i type="int" name="IWAVPR">    11</i>
   <i type="int" name="NBANDS">   440</i>
   <i name="NELECT">    678.00000000</i>
   <i type="int" name="TURBO">     0</i>
   <i type="int" name="IRESTART">     0</i>
   <i type="int" name="NREBOOT">     0</i>
   <i type="int" name="NMIN">     0</i>
   <i name="EREF">      0.00000000</i>
   <separator name="electronic smearing" >
    <i type="int" name="ISMEAR">     0</i>
    <i name="SIGMA">      0.05000000</i>
    <i name="KSPACING">      0.50000000</i>
    <i type="logical" name="KGAMMA"> T  </i>
   </separator>
   <separator name="electronic projectors" >
    <i type="logical" name="LREAL"> T  </i>
    <v name="ROPT">     -0.00050000     -0.00050000     -0.00050000     -0.00050000</v>
    <i type="int" name="LMAXPAW">  -100</i>
    <i type="int" name="LMAXMIX">     2</i>
    <i type="logical" name="NLSPLINE"> F  </i>
   </separator>
   <separator name="electronic startup" >
    <i type="int" name="ISTART">     0</i>
    <i type="int" name="ICHARG">     2</i>
    <i type="int" name="INIWAV">     1</i>
   </separator>
   <separator name="electronic spin" >
    <i type="int" name="ISPIN">     2</i>
    <i type="logical" name="LNONCOLLINEAR"> F  </i>
    <v name="MAGMOM">      0.60000000      0.60000000      0.60000000      0.60000000      0.60000000      0.60000000      0.60000000      0.60000000      0.60000000      0.60000000      0.60000000      0.60000000      0.60000000      0.60000000      0.60000000      0.60000000      0.60000000      0.60000000      0.60000000      0.60000000
      0.60000000      0.60000000      0.60000000      0.60000000      0.60000000      0.60000000      0.60000000      0.60000000      0.60000000      0.60000000      0.60000000      0.60000000      0.60000000      0.60000000      0.60000000      0.60000000      0.60000000      0.60000000      0.60000000      0.60000000
      0.60000000      0.60000000      0.60000000      0.60000000      0.60000000      0.60000000      0.60000000      0.60000000      0.60000000      0.60000000      0.60000000      0.60000000      0.60000000      0.60000000      0.60000000      0.60000000      0.60000000      0.60000000      0.60000000      0.60000000
      0.60000000      0.60000000      0.60000000      0.60000000      0.60000000      0.60000000      0.60000000      0.60000000      0.60000000      0.60000000      0.60000000      0.60000000      0.60000000      0.60000000      0.60000000      0.60000000      0.60000000      0.60000000      0.60000000      0.60000000
      0.60000000      0.60000000      0.60000000      0.60000000      0.60000000      0.60000000      0.60000000      0.60000000      0.60000000      0.60000000      0.60000000      0.60000000      0.60000000      0.60000000      0.60000000      0.60000000      0.60000000</v>
    <i name="NUPDOWN">     -1.00000000</i>
    <i type="logical" name="LSORBIT"> F  </i>
    <v name="SAXIS">      0.00000000      0.00000000      1.00000000</v>
    <i type="logical" name="LSPIRAL"> F  </i>
    <v name="QSPIRAL">      0.00000000      0.00000000      0.00000000</v>
    <i type="logical" name="LZEROZ"> F  </i>
   </separator>
   <separator name="electronic exchange-correlation" >
    <i type="logical" name="LASPH"> F  </i>
    <i type="logical" name="LMETAGGA"> F  </i>
   </separator>
   <separator name="electronic convergence" >
    <i type="int" name="NELM">    60</i>
    <i type="int" name="NELMDL">    -5</i>
    <i type="int" name="NELMIN">     4</i>
    <i name="ENINI">    500.00000000</i>
    <separator name="electronic convergence detail" >
     <i type="logical" name="LDIAG"> T  </i>
     <i type="logical" name="LSUBROT"> F  </i>
     <i name="WEIMIN">      0.00100000</i>
     <i name="EBREAK">      0.00000000</i>
     <i name="DEPER">      0.30000000</i>
     <i type="int" name="NRMM">     4</i>
     <i name="TIME">      0.40000000</i>
    </separator>
   </separator>
   <separator name="electronic mixer" >
    <i name="AMIX">      0.40000000</i>
    <i name="BMIX">      1.00000000</i>
    <i name="AMIN">      0.10000000</i>
    <i name="AMIX_MAG">      1.60000000</i>
    <i name="BMIX_MAG">      1.00000000</i>
    <separator name="electronic mixer details" >
     <i type="int" name="IMIX">     4</i>
     <i type="logical" name="MIXFIRST"> F  </i>
     <i type="int" name="MAXMIX">    60</i>
     <i name="WC">    100.00000000</i>
     <i type="int" name="INIMIX">     1</i>
     <i type="int" name="MIXPRE">     1</i>
     <i type="int" name="MREMOVE">     5</i>
    </separator>
   </separator>
   <separator name="electronic dipolcorrection" >
    <i type="logical" name="LDIPOL"> F  </i>
    <i type="logical" name="LMONO"> F  </i>
    <i type="int" name="IDIPOL">     0</i>
    <i name="EPSILON">      1.00000000</i>
    <v name="DIPOL">   -100.00000000   -100.00000000   -100.00000000</v>
    <i name="EFIELD">      0.00000000</i>
   </separator>
  </separator>
  <separator name="grids" >
   <i type="int" name="NGX">    70</i>
   <i type="int" name="NGY">    36</i>
   <i type="int" name="NGZ">   144</i>
   <i type="int" name="NGXF">   140</i>
   <i type="int" name="NGYF">    72</i>
   <i type="int" name="NGZF">   288</i>
   <i type="logical" name="ADDGRID"> F  </i>
  </separator>
  <separator name="ionic" >
   <i type="int" name="NSW">  1201</i>
   <i type="int" name="IBRION">     5</i>
   <i type="int" name="MDALGO">     0</i>
   <i type="int" name="ISIF">     2</i>
   <i name="PSTRESS">      0.00000000</i>
   <i name="EDIFFG">     -0.05000000</i>
   <i type="int" name="NFREE">     2</i>
   <i name="POTIM">      0.50000000</i>
   <i name="SMASS">     -3.00000000</i>
   <i name="SCALEE">      1.00000000</i>
  </separator>
  <separator name="ionic md" >
   <i name="TEBEG">      0.00010000</i>
   <i name="TEEND">      0.00010000</i>
   <i type="int" name="NBLOCK">     1</i>
   <i type="int" name="KBLOCK">  1201</i>
   <i type="int" name="NPACO">   256</i>
   <i name="APACO">     16.00000000</i>
  </separator>
  <separator name="symmetry" >
   <i type="int" name="ISYM">     2</i>
   <i name="SYMPREC">      0.00001000</i>
  </separator>
  <separator name="dos" >
   <i type="int" name="LORBIT">     0</i>
   <v name="RWIGS">     -1.00000000     -1.00000000     -1.00000000     -1.00000000</v>
   <i type="int" name="NEDOS">   301</i>
   <i name="EMIN">     10.00000000</i>
   <i name="EMAX">    -10.00000000</i>
   <i name="EFERMI">      0.00000000</i>
  </separator>
  <separator name="writing" >
   <i type="int" name="NWRITE">     2</i>
   <i type="logical" name="LWAVE"> F  </i>
   <i type="logical" name="LDOWNSAMPLE"> F  </i>
   <i type="logical" name="LCHARG"> F  </i>
   <i type="logical" name="LPARD"> F  </i>
   <i type="logical" name="LVTOT"> F  </i>
   <i type="logical" name="LVHAR"> T  </i>
   <i type="logical" name="LELF"> F  </i>
   <i type="logical" name="LOPTICS"> F  </i>
   <v name="STM">      0.00000000      0.00000000      0.00000000      0.00000000      0.00000000      0.00000000      0.00000000</v>
  </separator>
  <separator name="performance" >
   <i type="int" name="NPAR">    40</i>
   <i type="int" name="NSIM">     4</i>
   <i type="int" name="NBLK">    -1</i>
   <i type="logical" name="LPLANE"> T  </i>
   <i type="logical" name="LSCALAPACK"> T  </i>
   <i type="logical" name="LSCAAWARE"> F  </i>
   <i type="logical" name="LSCALU"> F  </i>
   <i type="logical" name="LASYNC"> F  </i>
   <i type="logical" name="LORBITALREAL"> F  </i>
  </separator>
  <separator name="miscellaneous" >
   <i type="int" name="IDIOT">     3</i>
   <i type="int" name="ISPECIAL">     0</i>
   <i type="logical" name="LMUSIC"> F  </i>
   <v name="POMASS">    192.22000000     16.00000000    192.22000000     16.00000000</v>
   <v name="DARWINR">      0.00000000      0.00000000      0.00000000      0.00000000</v>
   <v name="DARWINV">      1.00000000      1.00000000      1.00000000      1.00000000</v>
   <i type="logical" name="LCORR"> T  </i>
  </separator>
  <i type="logical" name="GGA_COMPAT"> T  </i>
  <i type="logical" name="LBERRY"> F  </i>
  <i type="int" name="ICORELEVEL">     0</i>
  <i type="logical" name="LDAU"> F  </i>
  <i type="int" name="I_CONSTRAINED_M">     0</i>
  <separator name="electronic exchange-correlation" >
   <i type="string" name="GGA">RP</i>
   <i type="int" name="VOSKOWN">     0</i>
   <i type="logical" name="LHFCALC"> F  </i>
   <i type="string" name="PRECFOCK"></i>
   <i type="logical" name="LSYMGRAD"> F  </i>
   <i type="logical" name="LHFONE"> F  </i>
   <i type="logical" name="LRHFCALC"> F  </i>
   <i type="logical" name="LTHOMAS"> F  </i>
   <i type="logical" name="LMODELHF"> F  </i>
   <i name="ENCUT4O">     -1.00000000</i>
   <i type="int" name="EXXOEP">     0</i>
   <i type="int" name="FOURORBIT">     0</i>
   <i name="AEXX">      0.00000000</i>
   <i name="HFALPHA">      0.00000000</i>
   <i name="MCALPHA">      0.00000000</i>
   <i name="ALDAX">      1.00000000</i>
   <i name="AGGAX">      1.00000000</i>
   <i name="ALDAC">      1.00000000</i>
   <i name="AGGAC">      1.00000000</i>
   <i type="int" name="NKREDX">     1</i>
   <i type="int" name="NKREDY">     1</i>
   <i type="int" name="NKREDZ">     1</i>
   <i type="logical" name="SHIFTRED"> F  </i>
   <i type="logical" name="ODDONLY"> F  </i>
   <i type="logical" name="EVENONLY"> F  </i>
   <i type="int" name="LMAXFOCK">     0</i>
   <i type="int" name="NMAXFOCKAE">     0</i>
   <i type="logical" name="LFOCKAEDFT"> F  </i>
   <i name="HFSCREEN">      0.00000000</i>
   <i name="HFSCREENC">      0.00000000</i>
   <i type="int" name="NBANDSGWLOW">     0</i>
  </separator>
  <separator name="vdW DFT" >
   <i type="logical" name="LUSE_VDW"> F  </i>
   <i name="Zab_VDW">     -0.84910000</i>
   <i name="PARAM1">      0.12340000</i>
   <i name="PARAM2">      1.00000000</i>
   <i name="PARAM3">      0.00000000</i>
  </separator>
  <separator name="model GW" >
   <i type="int" name="MODEL_GW">     0</i>
   <i name="MODEL_EPS0">     13.26722359</i>
   <i name="MODEL_ALPHA">      1.00000000</i>
  </separator>
  <separator name="linear response parameters" >
   <i type="logical" name="LEPSILON"> F  </i>
   <i type="logical" name="LRPA"> F  </i>
   <i type="logical" name="LNABLA"> F  </i>
   <i type="logical" name="LVEL"> F  </i>
   <i type="int" name="KINTER">     0</i>
   <i name="CSHIFT">      0.10000000</i>
   <i name="OMEGAMAX">     -1.00000000</i>
   <i name="DEG_THRESHOLD">      0.00200000</i>
   <i name="RTIME">     -0.10000000</i>
   <i name="WPLASMAI">      0.00000000</i>
   <v name="DFIELD">      0.00000000      0.00000000      0.00000000</v>
   <v name="WPLASMA">      0.00000000      0.00000000      0.00000000      0.00000000      0.00000000      0.00000000      0.00000000      0.00000000      0.00000000</v>
  </separator>
  <separator name="orbital magnetization" >
   <i type="logical" name="NUCIND"> F  </i>
   <v name="MAGPOS">      0.00000000      0.00000000      0.00000000</v>
   <i type="logical" name="LNICSALL"> T  </i>
   <i type="logical" name="ORBITALMAG"> F  </i>
   <i type="logical" name="LMAGBLOCH"> F  </i>
   <i type="logical" name="LCHIMAG"> F  </i>
   <i type="logical" name="LGAUGE"> T  </i>
   <i type="int" name="MAGATOM">     0</i>
   <v name="MAGDIPOL">      0.00000000      0.00000000      0.00000000</v>
   <v name="AVECCONST">      0.00000000      0.00000000      0.00000000</v>
  </separator>
  <separator name="response functions" >
   <i type="logical" name="LADDER"> F  </i>
   <i type="logical" name="LRPAFORCE"> F  </i>
   <i type="logical" name="LFXC"> F  </i>
   <i type="logical" name="LHARTREE"> T  </i>
   <i type="int" name="IBSE">     0</i>
   <v type="int" name="KPOINT">    -1     0     0     0</v>
   <i type="logical" name="LTCTE"> F  </i>
   <i type="logical" name="LTETE"> F  </i>
   <i type="logical" name="LTRIPLET"> F  </i>
   <i type="logical" name="LFXCEPS"> F  </i>
   <i type="logical" name="LFXHEG"> F  </i>
   <i type="int" name="NATURALO">     2</i>
   <i type="logical" name="L2ORDER"> F  </i>
   <i type="logical" name="LMP2LT"> F  </i>
   <i type="logical" name="LUSEW"> F  </i>
   <i name="ENCUTGW">     -2.00000000</i>
   <i name="ENCUTGWSOFT">     -2.00000000</i>
   <i name="ENCUTLF">     -1.00000000</i>
   <i type="int" name="LMAXMP2">    -1</i>
   <i name="SCISSOR">      0.00000000</i>
   <i type="int" name="NOMEGA">     0</i>
   <i type="int" name="NOMEGAR">     0</i>
   <i type="int" name="NBANDSGW">    -1</i>
   <i type="int" name="NBANDSO">    -1</i>
   <i type="int" name="NBANDSV">    -1</i>
   <i type="int" name="NELM">    60</i>
   <i type="int" name="NELMHF">     1</i>
   <i type="int" name="DIM">     3</i>
   <i type="int" name="ANTIRES">     0</i>
   <i name="OMEGAMAX">    -30.00000000</i>
   <i name="OMEGAMIN">    -30.00000000</i>
   <i name="OMEGATL">   -200.00000000</i>
   <i type="int" name="OMEGAGRID">   140</i>
   <i name="CSHIFT">     -0.10000000</i>
   <i type="logical" name="SELFENERGY"> F  </i>
   <i type="logical" name="LSPECTRAL"> F  </i>
   <i type="logical" name="LSPECTRALGW"> F  </i>
   <i type="logical" name="LSINGLES"> F  </i>
   <i type="logical" name="LFERMIGW"> F  </i>
   <i type="logical" name="ODDONLYGW"> F  </i>
   <i type="logical" name="EVENONLYGW"> F  </i>
   <i type="int" name="NKREDLFX">     1</i>
   <i type="int" name="NKREDLFY">     1</i>
   <i type="int" name="NKREDLFZ">     1</i>
   <i type="int" name="MAXMEM">  2800</i>
   <i type="int" name="TELESCOPE">     0</i>
   <i type="int" name="TAUPAR">     1</i>
   <i type="int" name="OMEGAPAR">    -1</i>
   <i name="LAMBDA">      1.00000000</i>
  </separator>
  <separator name="External order field" >
   <i name="OFIELD_KAPPA">      0.00000000</i>
   <v name="OFIELD_K">      0.00000000      0.00000000      0.00000000</v>
   <i name="OFIELD_Q6_NEAR">      0.00000000</i>
   <i name="OFIELD_Q6_FAR">      0.00000000</i>
   <i name="OFIELD_A">      0.00000000</i>
  </separator>
  <separator name="solvation model" >
   <i type="logical" name="LSOL"> F  </i>
  </separator>
 </parameters>
 <atominfo>
  <atoms>      97 </atoms>
  <types>       4 </types>
  <array name="atoms" >
   <dimension dim="1">ion</dimension>
   <field type="string">element</field>
   <field type="int">atomtype</field>
   <set>
    <rc><c>Ir</c><c>   1</c></rc>
    <rc><c>Ir</c><c>   1</c></rc>
    <rc><c>Ir</c><c>   1</c></rc>
    <rc><c>Ir</c><c>   1</c></rc>
    <rc><c>Ir</c><c>   1</c></rc>
    <rc><c>Ir</c><c>   1</c></rc>
    <rc><c>Ir</c><c>   1</c></rc>
    <rc><c>Ir</c><c>   1</c></rc>
    <rc><c>Ir</c><c>   1</c></rc>
    <rc><c>Ir</c><c>   1</c></rc>
    <rc><c>Ir</c><c>   1</c></rc>
    <rc><c>Ir</c><c>   1</c></rc>
    <rc><c>Ir</c><c>   1</c></rc>
    <rc><c>Ir</c><c>   1</c></rc>
    <rc><c>Ir</c><c>   1</c></rc>
    <rc><c>Ir</c><c>   1</c></rc>
    <rc><c>O </c><c>   2</c></rc>
    <rc><c>O </c><c>   2</c></rc>
    <rc><c>O </c><c>   2</c></rc>
    <rc><c>O </c><c>   2</c></rc>
    <rc><c>O </c><c>   2</c></rc>
    <rc><c>O </c><c>   2</c></rc>
    <rc><c>O </c><c>   2</c></rc>
    <rc><c>O </c><c>   2</c></rc>
    <rc><c>O </c><c>   2</c></rc>
    <rc><c>O </c><c>   2</c></rc>
    <rc><c>O </c><c>   2</c></rc>
    <rc><c>O </c><c>   2</c></rc>
    <rc><c>O </c><c>   2</c></rc>
    <rc><c>O </c><c>   2</c></rc>
    <rc><c>O </c><c>   2</c></rc>
    <rc><c>O </c><c>   2</c></rc>
    <rc><c>O </c><c>   2</c></rc>
    <rc><c>O </c><c>   2</c></rc>
    <rc><c>O </c><c>   2</c></rc>
    <rc><c>O </c><c>   2</c></rc>
    <rc><c>O </c><c>   2</c></rc>
    <rc><c>O </c><c>   2</c></rc>
    <rc><c>O </c><c>   2</c></rc>
    <rc><c>O </c><c>   2</c></rc>
    <rc><c>O </c><c>   2</c></rc>
    <rc><c>O </c><c>   2</c></rc>
    <rc><c>O </c><c>   2</c></rc>
    <rc><c>O </c><c>   2</c></rc>
    <rc><c>O </c><c>   2</c></rc>
    <rc><c>O </c><c>   2</c></rc>
    <rc><c>O </c><c>   2</c></rc>
    <rc><c>O </c><c>   2</c></rc>
    <rc><c>Ir</c><c>   3</c></rc>
    <rc><c>Ir</c><c>   3</c></rc>
    <rc><c>Ir</c><c>   3</c></rc>
    <rc><c>Ir</c><c>   3</c></rc>
    <rc><c>Ir</c><c>   3</c></rc>
    <rc><c>Ir</c><c>   3</c></rc>
    <rc><c>Ir</c><c>   3</c></rc>
    <rc><c>Ir</c><c>   3</c></rc>
    <rc><c>Ir</c><c>   3</c></rc>
    <rc><c>Ir</c><c>   3</c></rc>
    <rc><c>Ir</c><c>   3</c></rc>
    <rc><c>Ir</c><c>   3</c></rc>
    <rc><c>Ir</c><c>   3</c></rc>
    <rc><c>Ir</c><c>   3</c></rc>
    <rc><c>Ir</c><c>   3</c></rc>
    <rc><c>Ir</c><c>   3</c></rc>
    <rc><c>O </c><c>   4</c></rc>
    <rc><c>O </c><c>   4</c></rc>
    <rc><c>O </c><c>   4</c></rc>
    <rc><c>O </c><c>   4</c></rc>
    <rc><c>O </c><c>   4</c></rc>
    <rc><c>O </c><c>   4</c></rc>
    <rc><c>O </c><c>   4</c></rc>
    <rc><c>O </c><c>   4</c></rc>
    <rc><c>O </c><c>   4</c></rc>
    <rc><c>O </c><c>   4</c></rc>
    <rc><c>O </c><c>   4</c></rc>
    <rc><c>O </c><c>   4</c></rc>
    <rc><c>O </c><c>   4</c></rc>
    <rc><c>O </c><c>   4</c></rc>
    <rc><c>O </c><c>   4</c></rc>
    <rc><c>O </c><c>   4</c></rc>
    <rc><c>O </c><c>   4</c></rc>
    <rc><c>O </c><c>   4</c></rc>
    <rc><c>O </c><c>   4</c></rc>
    <rc><c>O </c><c>   4</c></rc>
    <rc><c>O </c><c>   4</c></rc>
    <rc><c>O </c><c>   4</c></rc>
    <rc><c>O </c><c>   4</c></rc>
    <rc><c>O </c><c>   4</c></rc>
    <rc><c>O </c><c>   4</c></rc>
    <rc><c>O </c><c>   4</c></rc>
    <rc><c>O </c><c>   4</c></rc>
    <rc><c>O </c><c>   4</c></rc>
    <rc><c>O </c><c>   4</c></rc>
    <rc><c>O </c><c>   4</c></rc>
    <rc><c>O </c><c>   4</c></rc>
    <rc><c>O </c><c>   4</c></rc>
    <rc><c>O </c><c>   4</c></rc>
   </set>
  </array>
  <array name="atomtypes" >
   <dimension dim="1">type</dimension>
   <field type="int">atomspertype</field>
   <field type="string">element</field>
   <field>mass</field>
   <field>valence</field>
   <field type="string">pseudopotential</field>
   <set>
    <rc><c>  16</c><c>Ir</c><c>    192.22000000</c><c>      9.00000000</c><c>  PAW_PBE Ir 06Sep2000                  </c></rc>
    <rc><c>  32</c><c>O </c><c>     16.00000000</c><c>      6.00000000</c><c>  PAW_PBE O 08Apr2002                   </c></rc>
    <rc><c>  16</c><c>Ir</c><c>    192.22000000</c><c>      9.00000000</c><c>  PAW_PBE Ir 06Sep2000                  </c></rc>
    <rc><c>  33</c><c>O </c><c>     16.00000000</c><c>      6.00000000</c><c>  PAW_PBE O 08Apr2002                   </c></rc>
   </set>
  </array>
 </atominfo>
 <structure name="initialpos" >
  <crystal>
   <varray name="basis" >
    <v>      12.80853200       0.00000000       0.00000000 </v>
    <v>       0.00000000       6.47024300       0.00000000 </v>
    <v>       0.00000000       0.00000000      25.88097200 </v>
   </varray>
   <i name="volume">   2144.86781344 </i>
   <varray name="rec_basis" >
    <v>       0.07807296       0.00000000       0.00000000 </v>
    <v>       0.00000000       0.15455370       0.00000000 </v>
    <v>       0.00000000       0.00000000       0.03863843 </v>
   </varray>
  </crystal>
  <varray name="positions" >
   <v>       0.12500000       0.50000000       0.18750000 </v>
   <v>       0.37500000       0.50000000       0.18750000 </v>
   <v>       0.12500000       0.00000000       0.06250000 </v>
   <v>       0.37500000       0.00000000       0.06250000 </v>
   <v>       0.00000000       0.50000000       0.06250000 </v>
   <v>       0.25000000       0.50000000       0.06250000 </v>
   <v>       0.00000000       0.00000000       0.18750000 </v>
   <v>       0.25000000       0.00000000       0.18750000 </v>
   <v>       0.12548958       0.50000000       0.43870306 </v>
   <v>       0.37519891       0.50000000       0.43811548 </v>
   <v>       0.12497675       0.00000000       0.31180276 </v>
   <v>       0.37680899       0.00000000       0.31257453 </v>
   <v>       0.99969020       0.50000000       0.31286696 </v>
   <v>       0.25015487       0.50000000       0.31262716 </v>
   <v>       0.99954470       0.00000000       0.43507857 </v>
   <v>       0.24997713       0.00000000       0.43466321 </v>
   <v>       0.00000000       0.50000000       0.13961000 </v>
   <v>       0.25000000       0.50000000       0.13961000 </v>
   <v>       0.00000000       0.00000000       0.01461000 </v>
   <v>       0.25000000       0.00000000       0.01461000 </v>
   <v>       0.12500000       0.80844000       0.18750000 </v>
   <v>       0.37500000       0.80844000       0.18750000 </v>
   <v>       0.12500000       0.30844000       0.06250000 </v>
   <v>       0.37500000       0.30844000       0.06250000 </v>
   <v>       0.00000000       0.50000000       0.23539000 </v>
   <v>       0.25000000       0.50000000       0.23539000 </v>
   <v>       0.00000000       0.00000000       0.11039000 </v>
   <v>       0.25000000       0.00000000       0.11039000 </v>
   <v>       0.12500000       0.19156000       0.18750000 </v>
   <v>       0.37500000       0.19156000       0.18750000 </v>
   <v>       0.12500000       0.69156000       0.06250000 </v>
   <v>       0.37500000       0.69156000       0.06250000 </v>
   <v>       0.00366870       0.50000000       0.38875489 </v>
   <v>       0.25002646       0.50000000       0.38946853 </v>
   <v>       0.99936237       0.00000000       0.26442890 </v>
   <v>       0.25052697       0.00000000       0.26437270 </v>
   <v>       0.12531147       0.81028746       0.44052222 </v>
   <v>       0.37438172       0.80888054       0.43902486 </v>
   <v>       0.12490598       0.30835543       0.31200945 </v>
   <v>       0.37556021       0.30794515       0.31198006 </v>
   <v>       0.99959745       0.50000000       0.48429816 </v>
   <v>       0.25103756       0.50000000       0.48366907 </v>
   <v>       0.00005561       0.00000000       0.35955987 </v>
   <v>       0.25027762       0.00000000       0.35933503 </v>
   <v>       0.12531147       0.18971254       0.44052222 </v>
   <v>       0.37438172       0.19111946       0.43902486 </v>
   <v>       0.12490598       0.69164457       0.31200945 </v>
   <v>       0.37556021       0.69205485       0.31198006 </v>
   <v>       0.62500000       0.50000000       0.18750000 </v>
   <v>       0.87500000       0.50000000       0.18750000 </v>
   <v>       0.62500000       0.00000000       0.06250000 </v>
   <v>       0.87500000       0.00000000       0.06250000 </v>
   <v>       0.50000000       0.50000000       0.06250000 </v>
   <v>       0.75000000       0.50000000       0.06250000 </v>
   <v>       0.50000000       0.00000000       0.18750000 </v>
   <v>       0.75000000       0.00000000       0.18750000 </v>
   <v>       0.62386619       0.50000000       0.43742715 </v>
   <v>       0.87624317       0.50000000       0.43844842 </v>
   <v>       0.62510735       0.00000000       0.31338678 </v>
   <v>       0.87341924       0.00000000       0.31291359 </v>
   <v>       0.50045744       0.50000000       0.31259641 </v>
   <v>       0.75002498       0.50000000       0.31346642 </v>
   <v>       0.50034947       0.00000000       0.44257753 </v>
   <v>       0.74990463       0.00000000       0.44311111 </v>
   <v>       0.50000000       0.50000000       0.13961000 </v>
   <v>       0.75000000       0.50000000       0.13961000 </v>
   <v>       0.50000000       0.00000000       0.01461000 </v>
   <v>       0.75000000       0.00000000       0.01461000 </v>
   <v>       0.62500000       0.80844000       0.18750000 </v>
   <v>       0.87500000       0.80844000       0.18750000 </v>
   <v>       0.62500000       0.30844000       0.06250000 </v>
   <v>       0.87500000       0.30844000       0.06250000 </v>
   <v>       0.50000000       0.50000000       0.23539000 </v>
   <v>       0.75000000       0.50000000       0.23539000 </v>
   <v>       0.50000000       0.00000000       0.11039000 </v>
   <v>       0.75000000       0.00000000       0.11039000 </v>
   <v>       0.62500000       0.19156000       0.18750000 </v>
   <v>       0.87500000       0.19156000       0.18750000 </v>
   <v>       0.62500000       0.69156000       0.06250000 </v>
   <v>       0.87500000       0.69156000       0.06250000 </v>
   <v>       0.49637292       0.50000000       0.38820110 </v>
   <v>       0.75023635       0.50000000       0.39130459 </v>
   <v>       0.50055390       0.00000000       0.26477411 </v>
   <v>       0.74969253       0.00000000       0.26479777 </v>
   <v>       0.62530925       0.80779667       0.43785432 </v>
   <v>       0.87566241       0.80760255       0.44050362 </v>
   <v>       0.62507443       0.30769013       0.31326226 </v>
   <v>       0.87484962       0.30809515       0.31340421 </v>
   <v>       0.50105330       0.50000000       0.48308004 </v>
   <v>       0.49981702       0.00000000       0.36150090 </v>
   <v>       0.75028798       0.00000000       0.36194136 </v>
   <v>       0.62530925       0.19220333       0.43785432 </v>
   <v>       0.87566241       0.19239745       0.44050362 </v>
   <v>       0.62507443       0.69230987       0.31326226 </v>
   <v>       0.87484962       0.69190485       0.31340421 </v>
   <v>       0.74842765       0.00000000       0.51280347 </v>
   <v>       0.50217689       0.00000000       0.51206302 </v>
  </varray>
  <varray name="selective"  type="logical" >
   <v type="logical" >  F  F  F </v>
   <v type="logical" >  F  F  F </v>
   <v type="logical" >  F  F  F </v>
   <v type="logical" >  F  F  F </v>
   <v type="logical" >  F  F  F </v>
   <v type="logical" >  F  F  F </v>
   <v type="logical" >  F  F  F </v>
   <v type="logical" >  F  F  F </v>
   <v type="logical" >  F  F  F </v>
   <v type="logical" >  F  F  F </v>
   <v type="logical" >  F  F  F </v>
   <v type="logical" >  F  F  F </v>
   <v type="logical" >  F  F  F </v>
   <v type="logical" >  F  F  F </v>
   <v type="logical" >  F  F  F </v>
   <v type="logical" >  F  F  F </v>
   <v type="logical" >  F  F  F </v>
   <v type="logical" >  F  F  F </v>
   <v type="logical" >  F  F  F </v>
   <v type="logical" >  F  F  F </v>
   <v type="logical" >  F  F  F </v>
   <v type="logical" >  F  F  F </v>
   <v type="logical" >  F  F  F </v>
   <v type="logical" >  F  F  F </v>
   <v type="logical" >  F  F  F </v>
   <v type="logical" >  F  F  F </v>
   <v type="logical" >  F  F  F </v>
   <v type="logical" >  F  F  F </v>
   <v type="logical" >  F  F  F </v>
   <v type="logical" >  F  F  F </v>
   <v type="logical" >  F  F  F </v>
   <v type="logical" >  F  F  F </v>
   <v type="logical" >  F  F  F </v>
   <v type="logical" >  F  F  F </v>
   <v type="logical" >  F  F  F </v>
   <v type="logical" >  F  F  F </v>
   <v type="logical" >  F  F  F </v>
   <v type="logical" >  F  F  F </v>
   <v type="logical" >  F  F  F </v>
   <v type="logical" >  F  F  F </v>
   <v type="logical" >  F  F  F </v>
   <v type="logical" >  F  F  F </v>
   <v type="logical" >  F  F  F </v>
   <v type="logical" >  F  F  F </v>
   <v type="logical" >  F  F  F </v>
   <v type="logical" >  F  F  F </v>
   <v type="logical" >  F  F  F </v>
   <v type="logical" >  F  F  F </v>
   <v type="logical" >  F  F  F </v>
   <v type="logical" >  F  F  F </v>
   <v type="logical" >  F  F  F </v>
   <v type="logical" >  F  F  F </v>
   <v type="logical" >  F  F  F </v>
   <v type="logical" >  F  F  F </v>
   <v type="logical" >  F  F  F </v>
   <v type="logical" >  F  F  F </v>
   <v type="logical" >  F  F  F </v>
   <v type="logical" >  F  F  F </v>
   <v type="logical" >  F  F  F </v>
   <v type="logical" >  F  F  F </v>
   <v type="logical" >  F  F  F </v>
   <v type="logical" >  F  F  F </v>
   <v type="logical" >  F  F  F </v>
   <v type="logical" >  F  F  F </v>
   <v type="logical" >  F  F  F </v>
   <v type="logical" >  F  F  F </v>
   <v type="logical" >  F  F  F </v>
   <v type="logical" >  F  F  F </v>
   <v type="logical" >  F  F  F </v>
   <v type="logical" >  F  F  F </v>
   <v type="logical" >  F  F  F </v>
   <v type="logical" >  F  F  F </v>
   <v type="logical" >  F  F  F </v>
   <v type="logical" >  F  F  F </v>
   <v type="logical" >  F  F  F </v>
   <v type="logical" >  F  F  F </v>
   <v type="logical" >  F  F  F </v>
   <v type="logical" >  F  F  F </v>
   <v type="logical" >  F  F  F </v>
   <v type="logical" >  F  F  F </v>
   <v type="logical" >  F  F  F </v>
   <v type="logical" >  F  F  F </v>
   <v type="logical" >  F  F  F </v>
   <v type="logical" >  F  F  F </v>
   <v type="logical" >  F  F  F </v>
   <v type="logical" >  F  F  F </v>
   <v type="logical" >  F  F  F </v>
   <v type="logical" >  F  F  F </v>
   <v type="logical" >  F  F  F </v>
   <v type="logical" >  F  F  F </v>
   <v type="logical" >  F  F  F </v>
   <v type="logical" >  F  F  F </v>
   <v type="logical" >  F  F  F </v>
   <v type="logical" >  F  F  F </v>
   <v type="logical" >  F  F  F </v>
   <v type="logical" >  T  T  T </v>
   <v type="logical" >  T  T  T </v>
  </varray>
  <nose>
   <v>      -3.00000000       0.00000000       0.00010000       0.00010000 </v>
  </nose>
 </structure>
 <calculation>
  <scstep>
   <time name="dav">   15.45   15.51</time>
   <time name="total">   15.61   15.68</time>
   <energy>
    <i name="alphaZ">   1757.37337241 </i>
    <i name="ewald"> 229594.18920783 </i>
    <i name="hartreedc">-275172.60588600 </i>
    <i name="XCdc">   1229.39061495 </i>
    <i name="pawpsdc">  40208.51757012 </i>
    <i name="pawaedc"> -38987.70090968 </i>
    <i name="eentropy">     -0.05244887 </i>
    <i name="bandstr">   2796.97767611 </i>
    <i name="atom">  46001.16897960 </i>
    <i name="e_fr_energy">   7427.25817647 </i>
    <i name="e_wo_entrp">   7427.31062534 </i>
    <i name="e_0_energy">   7427.28440090 </i>
   </energy>
  </scstep>
  <scstep>
   <time name="dav">   16.39   16.45</time>
   <time name="total">   16.39   16.45</time>
   <energy>
    <i name="e_fr_energy">    462.52071329 </i>
    <i name="e_wo_entrp">    462.56877123 </i>
    <i name="e_0_energy">    462.54474226 </i>
   </energy>
  </scstep>
  <scstep>
   <time name="dav">   19.85   19.91</time>
   <time name="total">   19.85   19.91</time>
   <energy>
    <i name="e_fr_energy">   -696.22010345 </i>
    <i name="e_wo_entrp">   -696.14984546 </i>
    <i name="e_0_energy">   -696.18497446 </i>
   </energy>
  </scstep>
  <scstep>
   <time name="dav">   18.43   18.48</time>
   <time name="total">   18.43   18.48</time>
   <energy>
    <i name="e_fr_energy">   -748.27233015 </i>
    <i name="e_wo_entrp">   -748.19299828 </i>
    <i name="e_0_energy">   -748.23266421 </i>
   </energy>
  </scstep>
  <scstep>
   <time name="dav">   18.53   18.60</time>
   <time name="total">   19.27   19.34</time>
   <energy>
    <i name="e_fr_energy">   -749.73342844 </i>
    <i name="e_wo_entrp">   -749.65379773 </i>
    <i name="e_0_energy">   -749.69361308 </i>
   </energy>
  </scstep>
  <scstep>
   <time name="diag">    3.07    3.08</time>
   <time name="diis">    8.30    8.32</time>
   <time name="orth">    0.74    0.74</time>
   <time name="total">   12.98   13.04</time>
   <energy>
    <i name="e_fr_energy">   -626.29971661 </i>
    <i name="e_wo_entrp">   -626.23803599 </i>
    <i name="e_0_energy">   -626.26887630 </i>
   </energy>
  </scstep>
  <scstep>
   <time name="diag">    3.07    3.08</time>
   <time name="diis">    8.41    8.45</time>
   <time name="orth">    0.74    0.74</time>
   <time name="total">   13.10   13.14</time>
   <energy>
    <i name="e_fr_energy">   -843.64217204 </i>
    <i name="e_wo_entrp">   -843.58225825 </i>
    <i name="e_0_energy">   -843.61221515 </i>
   </energy>
  </scstep>
  <scstep>
   <time name="diag">    3.07    3.08</time>
   <time name="diis">    8.28    8.30</time>
   <time name="orth">    0.74    0.74</time>
   <time name="total">   12.96   13.00</time>
   <energy>
    <i name="e_fr_energy">   -700.07129553 </i>
    <i name="e_wo_entrp">   -700.01026881 </i>
    <i name="e_0_energy">   -700.04078217 </i>
   </energy>
  </scstep>
  <scstep>
   <time name="diag">    3.07    3.07</time>
   <time name="diis">    8.28    8.30</time>
   <time name="orth">    0.74    0.74</time>
   <time name="total">   12.95   12.99</time>
   <energy>
    <i name="e_fr_energy">   -771.90557560 </i>
    <i name="e_wo_entrp">   -771.83768846 </i>
    <i name="e_0_energy">   -771.87163203 </i>
   </energy>
  </scstep>
  <scstep>
   <time name="diag">    3.06    3.07</time>
   <time name="diis">    8.52    8.54</time>
   <time name="orth">    0.73    0.74</time>
   <time name="total">   13.19   13.23</time>
   <energy>
    <i name="e_fr_energy">   -636.16702476 </i>
    <i name="e_wo_entrp">   -636.09691738 </i>
    <i name="e_0_energy">   -636.13197107 </i>
   </energy>
  </scstep>
  <scstep>
   <time name="diag">    3.07    3.07</time>
   <time name="diis">    8.29    8.31</time>
   <time name="orth">    0.74    0.74</time>
   <time name="total">   12.96   13.00</time>
   <energy>
    <i name="e_fr_energy">   -692.78199798 </i>
    <i name="e_wo_entrp">   -692.73360827 </i>
    <i name="e_0_energy">   -692.75780313 </i>
   </energy>
  </scstep>
  <scstep>
   <time name="diag">    3.06    3.07</time>
   <time name="diis">    8.30    8.33</time>
   <time name="orth">    0.74    0.74</time>
   <time name="total">   12.98   13.02</time>
   <energy>
    <i name="e_fr_energy">   -625.29640908 </i>
    <i name="e_wo_entrp">   -625.22289999 </i>
    <i name="e_0_energy">   -625.25965454 </i>
   </energy>
  </scstep>
  <scstep>
   <time name="diag">    3.06    3.07</time>
   <time name="diis">    8.29    8.32</time>
   <time name="orth">    0.74    0.74</time>
   <time name="total">   12.96   13.00</time>
   <energy>
    <i name="e_fr_energy">   -604.93019922 </i>
    <i name="e_wo_entrp">   -604.86622102 </i>
    <i name="e_0_energy">   -604.89821012 </i>
   </energy>
  </scstep>
  <scstep>
   <time name="diag">    3.10    3.12</time>
   <time name="diis">    8.28    8.30</time>
   <time name="orth">    0.74    0.75</time>
   <time name="total">   13.00   13.05</time>
   <energy>
    <i name="e_fr_energy">   -598.99164621 </i>
    <i name="e_wo_entrp">   -598.91166483 </i>
    <i name="e_0_energy">   -598.95165552 </i>
   </energy>
  </scstep>
  <scstep>
   <time name="diag">    3.06    3.07</time>
   <time name="diis">    8.29    8.31</time>
   <time name="orth">    0.73    0.74</time>
   <time name="total">   12.96   13.00</time>
   <energy>
    <i name="e_fr_energy">   -598.72194874 </i>
    <i name="e_wo_entrp">   -598.64914785 </i>
    <i name="e_0_energy">   -598.68554830 </i>
   </energy>
  </scstep>
  <scstep>
   <time name="diag">    3.05    3.06</time>
   <time name="diis">    8.28    8.30</time>
   <time name="orth">    0.74    0.74</time>
   <time name="total">   12.94   12.99</time>
   <energy>
    <i name="e_fr_energy">   -599.81017060 </i>
    <i name="e_wo_entrp">   -599.73148896 </i>
    <i name="e_0_energy">   -599.77082978 </i>
   </energy>
  </scstep>
  <scstep>
   <time name="diag">    3.07    3.08</time>
   <time name="diis">    8.28    8.30</time>
   <time name="orth">    0.74    0.74</time>
   <time name="total">   12.96   13.00</time>
   <energy>
    <i name="e_fr_energy">   -600.97943401 </i>
    <i name="e_wo_entrp">   -600.90889300 </i>
    <i name="e_0_energy">   -600.94416350 </i>
   </energy>
  </scstep>
  <scstep>
   <time name="diag">    3.05    3.06</time>
   <time name="diis">    8.27    8.30</time>
   <time name="orth">    0.74    0.74</time>
   <time name="total">   12.94   12.98</time>
   <energy>
    <i name="e_fr_energy">   -603.29979753 </i>
    <i name="e_wo_entrp">   -603.22799643 </i>
    <i name="e_0_energy">   -603.26389698 </i>
   </energy>
  </scstep>
  <scstep>
   <time name="diag">    3.05    3.06</time>
   <time name="diis">    8.27    8.29</time>
   <time name="orth">    0.73    0.74</time>
   <time name="total">   12.93   12.97</time>
   <energy>
    <i name="e_fr_energy">   -606.24012364 </i>
    <i name="e_wo_entrp">   -606.16897539 </i>
    <i name="e_0_energy">   -606.20454952 </i>
   </energy>
  </scstep>
  <scstep>
   <time name="diag">    3.05    3.07</time>
   <time name="diis">    8.22    8.25</time>
   <time name="orth">    0.74    0.74</time>
   <time name="total">   12.89   12.94</time>
   <energy>
    <i name="e_fr_energy">   -609.57008093 </i>
    <i name="e_wo_entrp">   -609.49977673 </i>
    <i name="e_0_energy">   -609.53492883 </i>
   </energy>
  </scstep>
  <scstep>
   <time name="diag">    3.09    3.10</time>
   <time name="diis">    8.23    8.27</time>
   <time name="orth">    0.73    0.74</time>
   <time name="total">   12.94   12.99</time>
   <energy>
    <i name="e_fr_energy">   -611.82595873 </i>
    <i name="e_wo_entrp">   -611.75902107 </i>
    <i name="e_0_energy">   -611.79248990 </i>
   </energy>
  </scstep>
  <scstep>
   <time name="diag">    3.06    3.06</time>
   <time name="diis">    8.25    8.28</time>
   <time name="orth">    0.73    0.74</time>
   <time name="total">   12.92   12.96</time>
   <energy>
    <i name="e_fr_energy">   -613.35336158 </i>
    <i name="e_wo_entrp">   -613.29420770 </i>
    <i name="e_0_energy">   -613.32378464 </i>
   </energy>
  </scstep>
  <scstep>
   <time name="diag">    3.05    3.06</time>
   <time name="diis">    8.26    8.28</time>
   <time name="orth">    0.73    0.74</time>
   <time name="total">   12.93   12.97</time>
   <energy>
    <i name="e_fr_energy">   -613.63341040 </i>
    <i name="e_wo_entrp">   -613.57404355 </i>
    <i name="e_0_energy">   -613.60372697 </i>
   </energy>
  </scstep>
  <scstep>
   <time name="diag">    3.06    3.07</time>
   <time name="diis">    8.28    8.31</time>
   <time name="orth">    0.74    0.74</time>
   <time name="total">   12.96   13.01</time>
   <energy>
    <i name="e_fr_energy">   -614.07733708 </i>
    <i name="e_wo_entrp">   -614.01601920 </i>
    <i name="e_0_energy">   -614.04667814 </i>
   </energy>
  </scstep>
  <scstep>
   <time name="diag">    3.05    3.06</time>
   <time name="diis">    8.23    8.26</time>
   <time name="orth">    0.74    0.74</time>
   <time name="total">   12.90   12.94</time>
   <energy>
    <i name="e_fr_energy">   -614.87741320 </i>
    <i name="e_wo_entrp">   -614.81447059 </i>
    <i name="e_0_energy">   -614.84594189 </i>
   </energy>
  </scstep>
  <scstep>
   <time name="diag">    3.06    3.06</time>
   <time name="diis">    8.38    8.40</time>
   <time name="orth">    0.74    0.74</time>
   <time name="total">   13.04   13.09</time>
   <energy>
    <i name="e_fr_energy">   -615.46465134 </i>
    <i name="e_wo_entrp">   -615.40022058 </i>
    <i name="e_0_energy">   -615.43243596 </i>
   </energy>
  </scstep>
  <scstep>
   <time name="diag">    3.05    3.06</time>
   <time name="diis">    8.26    8.28</time>
   <time name="orth">    0.73    0.74</time>
   <time name="total">   12.92   12.96</time>
   <energy>
    <i name="e_fr_energy">   -616.23033784 </i>
    <i name="e_wo_entrp">   -616.16166217 </i>
    <i name="e_0_energy">   -616.19600001 </i>
   </energy>
  </scstep>
  <scstep>
   <time name="diag">    3.06    3.07</time>
   <time name="diis">    8.26    8.28</time>
   <time name="orth">    0.73    0.74</time>
   <time name="total">   12.96   13.00</time>
   <energy>
    <i name="e_fr_energy">   -617.37126576 </i>
    <i name="e_wo_entrp">   -617.30167944 </i>
    <i name="e_0_energy">   -617.33647260 </i>
   </energy>
  </scstep>
  <scstep>
   <time name="diag">    3.06    3.06</time>
   <time name="diis">    8.24    8.26</time>
   <time name="orth">    0.73    0.74</time>
   <time name="total">   12.91   12.95</time>
   <energy>
    <i name="e_fr_energy">   -618.06701610 </i>
    <i name="e_wo_entrp">   -618.00283096 </i>
    <i name="e_0_energy">   -618.03492353 </i>
   </energy>
  </scstep>
  <scstep>
   <time name="diag">    3.05    3.06</time>
   <time name="diis">    8.28    8.30</time>
   <time name="orth">    0.73    0.74</time>
   <time name="total">   12.94   12.99</time>
   <energy>
    <i name="e_fr_energy">   -618.47967001 </i>
    <i name="e_wo_entrp">   -618.41716305 </i>
    <i name="e_0_energy">   -618.44841653 </i>
   </energy>
  </scstep>
  <scstep>
   <time name="diag">    3.07    3.08</time>
   <time name="diis">    8.31    8.34</time>
   <time name="orth">    0.74    0.74</time>
   <time name="total">   12.99   13.05</time>
   <energy>
    <i name="e_fr_energy">   -618.64235753 </i>
    <i name="e_wo_entrp">   -618.57873676 </i>
    <i name="e_0_energy">   -618.61054714 </i>
   </energy>
  </scstep>
  <scstep>
   <time name="diag">    3.06    3.07</time>
   <time name="diis">    8.25    8.27</time>
   <time name="orth">    0.74    0.74</time>
   <time name="total">   12.92   12.96</time>
   <energy>
    <i name="e_fr_energy">   -618.73821619 </i>
    <i name="e_wo_entrp">   -618.67475563 </i>
    <i name="e_0_energy">   -618.70648591 </i>
   </energy>
  </scstep>
  <scstep>
   <time name="diag">    3.05    3.06</time>
   <time name="diis">    8.25    8.28</time>
   <time name="orth">    0.75    0.75</time>
   <time name="total">   12.93   12.97</time>
   <energy>
    <i name="e_fr_energy">   -618.84684641 </i>
    <i name="e_wo_entrp">   -618.78198982 </i>
    <i name="e_0_energy">   -618.81441811 </i>
   </energy>
  </scstep>
  <scstep>
   <time name="diag">    3.06    3.07</time>
   <time name="diis">    8.27    8.29</time>
   <time name="orth">    0.77    0.78</time>
   <time name="total">   12.98   13.02</time>
   <energy>
    <i name="e_fr_energy">   -618.94897746 </i>
    <i name="e_wo_entrp">   -618.88531242 </i>
    <i name="e_0_energy">   -618.91714494 </i>
   </energy>
  </scstep>
  <scstep>
   <time name="diag">    3.05    3.06</time>
   <time name="diis">    8.26    8.28</time>
   <time name="orth">    0.75    0.76</time>
   <time name="total">   12.95   12.99</time>
   <energy>
    <i name="e_fr_energy">   -618.99793490 </i>
    <i name="e_wo_entrp">   -618.93249843 </i>
    <i name="e_0_energy">   -618.96521666 </i>
   </energy>
  </scstep>
  <scstep>
   <time name="diag">    3.05    3.07</time>
   <time name="diis">    8.24    8.27</time>
   <time name="orth">    0.74    0.74</time>
   <time name="total">   12.92   12.97</time>
   <energy>
    <i name="e_fr_energy">   -619.03396745 </i>
    <i name="e_wo_entrp">   -618.96689559 </i>
    <i name="e_0_energy">   -619.00043152 </i>
   </energy>
  </scstep>
  <scstep>
   <time name="diag">    3.10    3.11</time>
   <time name="diis">    8.25    8.28</time>
   <time name="orth">    0.74    0.74</time>
   <time name="total">   12.98   13.02</time>
   <energy>
    <i name="e_fr_energy">   -619.06986232 </i>
    <i name="e_wo_entrp">   -619.00185047 </i>
    <i name="e_0_energy">   -619.03585639 </i>
   </energy>
  </scstep>
  <scstep>
   <time name="diag">    3.06    3.06</time>
   <time name="diis">    8.23    8.26</time>
   <time name="orth">    0.74    0.74</time>
   <time name="total">   12.92   12.97</time>
   <energy>
    <i name="e_fr_energy">   -619.14220969 </i>
    <i name="e_wo_entrp">   -619.07268009 </i>
    <i name="e_0_energy">   -619.10744489 </i>
   </energy>
  </scstep>
  <scstep>
   <time name="diag">    3.05    3.06</time>
   <time name="diis">    8.25    8.28</time>
   <time name="orth">    0.75    0.75</time>
   <time name="total">   12.95   12.98</time>
   <energy>
    <i name="e_fr_energy">   -619.20412639 </i>
    <i name="e_wo_entrp">   -619.13385888 </i>
    <i name="e_0_energy">   -619.16899264 </i>
   </energy>
  </scstep>
  <scstep>
   <time name="diag">    3.06    3.07</time>
   <time name="diis">    8.25    8.29</time>
   <time name="orth">    0.73    0.74</time>
   <time name="total">   12.93   12.99</time>
   <energy>
    <i name="e_fr_energy">   -619.24833674 </i>
    <i name="e_wo_entrp">   -619.17759061 </i>
    <i name="e_0_energy">   -619.21296367 </i>
   </energy>
  </scstep>
  <scstep>
   <time name="diag">    3.05    3.06</time>
   <time name="diis">    8.25    8.27</time>
   <time name="orth">    0.74    0.74</time>
   <time name="total">   12.92   12.97</time>
   <energy>
    <i name="e_fr_energy">   -619.31468411 </i>
    <i name="e_wo_entrp">   -619.24383955 </i>
    <i name="e_0_energy">   -619.27926183 </i>
   </energy>
  </scstep>
  <scstep>
   <time name="diag">    3.07    3.08</time>
   <time name="diis">    8.25    8.27</time>
   <time name="orth">    0.74    0.74</time>
   <time name="total">   12.95   12.98</time>
   <energy>
    <i name="e_fr_energy">   -619.36905913 </i>
    <i name="e_wo_entrp">   -619.29816018 </i>
    <i name="e_0_energy">   -619.33360965 </i>
   </energy>
  </scstep>
  <scstep>
   <time name="diag">    3.06    3.06</time>
   <time name="diis">    8.28    8.30</time>
   <time name="orth">    0.73    0.74</time>
   <time name="total">   12.97   13.00</time>
   <energy>
    <i name="e_fr_energy">   -619.41116864 </i>
    <i name="e_wo_entrp">   -619.34054771 </i>
    <i name="e_0_energy">   -619.37585817 </i>
   </energy>
  </scstep>
  <scstep>
   <time name="diag">    3.10    3.11</time>
   <time name="diis">    8.26    8.28</time>
   <time name="orth">    0.74    0.74</time>
   <time name="total">   12.99   13.02</time>
   <energy>
    <i name="e_fr_energy">   -619.44060223 </i>
    <i name="e_wo_entrp">   -619.37010869 </i>
    <i name="e_0_energy">   -619.40535546 </i>
   </energy>
  </scstep>
  <scstep>
   <time name="diag">    3.05    3.06</time>
   <time name="diis">    8.23    8.26</time>
   <time name="orth">    0.74    0.74</time>
   <time name="total">   12.92   12.96</time>
   <energy>
    <i name="e_fr_energy">   -619.48640190 </i>
    <i name="e_wo_entrp">   -619.41596547 </i>
    <i name="e_0_energy">   -619.45118368 </i>
   </energy>
  </scstep>
  <scstep>
   <time name="diag">    3.06    3.06</time>
   <time name="diis">    8.26    8.28</time>
   <time name="orth">    0.74    0.74</time>
   <time name="total">   12.94   12.99</time>
   <energy>
    <i name="e_fr_energy">   -619.53800464 </i>
    <i name="e_wo_entrp">   -619.46762379 </i>
    <i name="e_0_energy">   -619.50281422 </i>
   </energy>
  </scstep>
  <scstep>
   <time name="diag">    3.05    3.06</time>
   <time name="diis">    8.30    8.33</time>
   <time name="orth">    0.73    0.74</time>
   <time name="total">   12.99   13.03</time>
   <energy>
    <i name="e_fr_energy">   -619.56700659 </i>
    <i name="e_wo_entrp">   -619.49670410 </i>
    <i name="e_0_energy">   -619.53185535 </i>
   </energy>
  </scstep>
  <scstep>
   <time name="diag">    3.05    3.06</time>
   <time name="diis">    8.31    8.33</time>
   <time name="orth">    0.74    0.74</time>
   <time name="total">   13.00   13.03</time>
   <energy>
    <i name="e_fr_energy">   -619.58281293 </i>
    <i name="e_wo_entrp">   -619.51236519 </i>
    <i name="e_0_energy">   -619.54758906 </i>
   </energy>
  </scstep>
  <scstep>
   <time name="diag">    3.06    3.07</time>
   <time name="diis">    8.27    8.29</time>
   <time name="orth">    0.73    0.74</time>
   <time name="total">   12.96   13.00</time>
   <energy>
    <i name="e_fr_energy">   -619.59378048 </i>
    <i name="e_wo_entrp">   -619.52313492 </i>
    <i name="e_0_energy">   -619.55845770 </i>
   </energy>
  </scstep>
  <scstep>
   <time name="diag">    3.05    3.06</time>
   <time name="diis">    8.29    8.31</time>
   <time name="orth">    0.74    0.74</time>
   <time name="total">   12.98   13.03</time>
   <energy>
    <i name="e_fr_energy">   -619.59982576 </i>
    <i name="e_wo_entrp">   -619.52906889 </i>
    <i name="e_0_energy">   -619.56444733 </i>
   </energy>
  </scstep>
  <scstep>
   <time name="diag">    3.09    3.10</time>
   <time name="diis">    8.41    8.43</time>
   <time name="orth">    0.74    0.74</time>
   <time name="total">   13.14   13.19</time>
   <energy>
    <i name="e_fr_energy">   -619.59997615 </i>
    <i name="e_wo_entrp">   -619.52903928 </i>
    <i name="e_0_energy">   -619.56450772 </i>
   </energy>
  </scstep>
  <scstep>
   <time name="diag">    3.05    3.06</time>
   <time name="diis">    8.37    8.40</time>
   <time name="orth">    0.74    0.74</time>
   <time name="total">   13.06   13.10</time>
   <energy>
    <i name="e_fr_energy">   -619.59927330 </i>
    <i name="e_wo_entrp">   -619.52823605 </i>
    <i name="e_0_energy">   -619.56375467 </i>
   </energy>
  </scstep>
  <scstep>
   <time name="diag">    3.05    3.07</time>
   <time name="diis">    8.22    8.24</time>
   <time name="orth">    0.74    0.74</time>
   <time name="total">   12.90   12.96</time>
   <energy>
    <i name="e_fr_energy">   -619.59889088 </i>
    <i name="e_wo_entrp">   -619.52772290 </i>
    <i name="e_0_energy">   -619.56330689 </i>
   </energy>
  </scstep>
  <scstep>
   <time name="diag">    3.06    3.07</time>
   <time name="diis">    8.05    8.08</time>
   <time name="orth">    0.74    0.74</time>
   <time name="total">   12.74   12.78</time>
   <energy>
    <i name="e_fr_energy">   -619.59863986 </i>
    <i name="e_wo_entrp">   -619.52735255 </i>
    <i name="e_0_energy">   -619.56299621 </i>
   </energy>
  </scstep>
  <scstep>
   <time name="diag">    3.06    3.07</time>
   <time name="diis">    7.44    7.47</time>
   <time name="orth">    0.74    0.74</time>
   <time name="total">   12.13   12.17</time>
   <energy>
    <i name="e_fr_energy">   -619.59885012 </i>
    <i name="e_wo_entrp">   -619.52750745 </i>
    <i name="e_0_energy">   -619.56317879 </i>
   </energy>
  </scstep>
  <scstep>
   <time name="diag">    3.05    3.06</time>
   <time name="diis">    7.20    7.23</time>
   <time name="orth">    0.74    0.74</time>
   <time name="total">   11.89   11.93</time>
   <energy>
    <i name="e_fr_energy">   -619.59971915 </i>
    <i name="e_wo_entrp">   -619.52835046 </i>
    <i name="e_0_energy">   -619.56403480 </i>
   </energy>
  </scstep>
  <scstep>
   <time name="diag">    3.06    3.08</time>
   <time name="diis">    7.47    7.49</time>
   <time name="orth">    0.73    0.74</time>
   <time name="total">   12.17   12.21</time>
   <energy>
    <i name="e_fr_energy">   -619.60062169 </i>
    <i name="e_wo_entrp">   -619.52920115 </i>
    <i name="e_0_energy">   -619.56491142 </i>
   </energy>
  </scstep>
  <scstep>
   <time name="diag">    3.10    3.11</time>
   <time name="diis">    6.71    6.73</time>
   <time name="orth">    0.74    0.74</time>
   <time name="total">   11.44   11.48</time>
   <energy>
    <i name="e_fr_energy">   -619.60150759 </i>
    <i name="e_wo_entrp">   -619.53008024 </i>
    <i name="e_0_energy">   -619.56579391 </i>
   </energy>
  </scstep>
  <scstep>
   <time name="diag">    3.07    3.07</time>
   <time name="diis">    6.54    6.56</time>
   <time name="orth">    0.73    0.74</time>
   <time name="total">   11.24   11.28</time>
   <energy>
    <i name="e_fr_energy">   -619.60226640 </i>
    <i name="e_wo_entrp">   -619.53080655 </i>
    <i name="e_0_energy">   -619.56653647 </i>
   </energy>
  </scstep>
  <scstep>
   <time name="diag">    3.05    3.06</time>
   <time name="diis">    6.06    6.08</time>
   <time name="orth">    0.74    0.74</time>
   <time name="total">    9.99   10.02</time>
   <energy>
    <i name="alphaZ">   1757.37337241 </i>
    <i name="ewald"> 229594.18920783 </i>
    <i name="hartreedc">-275302.64485376 </i>
    <i name="XCdc">   1268.96654681 </i>
    <i name="pawpsdc">  60911.17317312 </i>
    <i name="pawaedc"> -59801.27157545 </i>
    <i name="eentropy">     -0.07145333 </i>
    <i name="bandstr">  -5048.48638201 </i>
    <i name="atom">  46001.16897960 </i>
    <i name="e_fr_energy">   -619.60298480 </i>
    <i name="e_wo_entrp">   -619.53153147 </i>
    <i name="e_0_energy">   -619.56725813 </i>
   </energy>
  </scstep>
  <structure>
   <crystal>
    <varray name="basis" >
     <v>      12.80853200       0.00000000       0.00000000 </v>
     <v>       0.00000000       6.47024300       0.00000000 </v>
     <v>       0.00000000       0.00000000      25.88097200 </v>
    </varray>
    <i name="volume">   2144.86781344 </i>
    <varray name="rec_basis" >
     <v>       0.07807296       0.00000000       0.00000000 </v>
     <v>       0.00000000       0.15455370       0.00000000 </v>
     <v>       0.00000000       0.00000000       0.03863843 </v>
    </varray>
   </crystal>
   <varray name="positions" >
    <v>       0.12500000       0.50000000       0.18750000 </v>
    <v>       0.37500000       0.50000000       0.18750000 </v>
    <v>       0.12500000       0.00000000       0.06250000 </v>
    <v>       0.37500000       0.00000000       0.06250000 </v>
    <v>       0.00000000       0.50000000       0.06250000 </v>
    <v>       0.25000000       0.50000000       0.06250000 </v>
    <v>       0.00000000       0.00000000       0.18750000 </v>
    <v>       0.25000000       0.00000000       0.18750000 </v>
    <v>       0.12548958       0.50000000       0.43870306 </v>
    <v>       0.37519891       0.50000000       0.43811548 </v>
    <v>       0.12497675       0.00000000       0.31180276 </v>
    <v>       0.37680899       0.00000000       0.31257453 </v>
    <v>       0.99969020       0.50000000       0.31286696 </v>
    <v>       0.25015487       0.50000000       0.31262716 </v>
    <v>       0.99954470       0.00000000       0.43507857 </v>
    <v>       0.24997713       0.00000000       0.43466321 </v>
    <v>       0.00000000       0.50000000       0.13961000 </v>
    <v>       0.25000000       0.50000000       0.13961000 </v>
    <v>       0.00000000       0.00000000       0.01461000 </v>
    <v>       0.25000000       0.00000000       0.01461000 </v>
    <v>       0.12500000       0.80844000       0.18750000 </v>
    <v>       0.37500000       0.80844000       0.18750000 </v>
    <v>       0.12500000       0.30844000       0.06250000 </v>
    <v>       0.37500000       0.30844000       0.06250000 </v>
    <v>       0.00000000       0.50000000       0.23539000 </v>
    <v>       0.25000000       0.50000000       0.23539000 </v>
    <v>       0.00000000       0.00000000       0.11039000 </v>
    <v>       0.25000000       0.00000000       0.11039000 </v>
    <v>       0.12500000       0.19156000       0.18750000 </v>
    <v>       0.37500000       0.19156000       0.18750000 </v>
    <v>       0.12500000       0.69156000       0.06250000 </v>
    <v>       0.37500000       0.69156000       0.06250000 </v>
    <v>       0.00366870       0.50000000       0.38875489 </v>
    <v>       0.25002646       0.50000000       0.38946853 </v>
    <v>       0.99936237       0.00000000       0.26442890 </v>
    <v>       0.25052697       0.00000000       0.26437270 </v>
    <v>       0.12531147       0.81028746       0.44052222 </v>
    <v>       0.37438172       0.80888054       0.43902486 </v>
    <v>       0.12490598       0.30835543       0.31200945 </v>
    <v>       0.37556021       0.30794515       0.31198006 </v>
    <v>       0.99959745       0.50000000       0.48429816 </v>
    <v>       0.25103756       0.50000000       0.48366907 </v>
    <v>       0.00005561       0.00000000       0.35955987 </v>
    <v>       0.25027762       0.00000000       0.35933503 </v>
    <v>       0.12531147       0.18971254       0.44052222 </v>
    <v>       0.37438172       0.19111946       0.43902486 </v>
    <v>       0.12490598       0.69164457       0.31200945 </v>
    <v>       0.37556021       0.69205485       0.31198006 </v>
    <v>       0.62500000       0.50000000       0.18750000 </v>
    <v>       0.87500000       0.50000000       0.18750000 </v>
    <v>       0.62500000       0.00000000       0.06250000 </v>
    <v>       0.87500000       0.00000000       0.06250000 </v>
    <v>       0.50000000       0.50000000       0.06250000 </v>
    <v>       0.75000000       0.50000000       0.06250000 </v>
    <v>       0.50000000       0.00000000       0.18750000 </v>
    <v>       0.75000000       0.00000000       0.18750000 </v>
    <v>       0.62386619       0.50000000       0.43742715 </v>
    <v>       0.87624317       0.50000000       0.43844842 </v>
    <v>       0.62510735       0.00000000       0.31338678 </v>
    <v>       0.87341924       0.00000000       0.31291359 </v>
    <v>       0.50045744       0.50000000       0.31259641 </v>
    <v>       0.75002498       0.50000000       0.31346642 </v>
    <v>       0.50034947       0.00000000       0.44257753 </v>
    <v>       0.74990463       0.00000000       0.44311111 </v>
    <v>       0.50000000       0.50000000       0.13961000 </v>
    <v>       0.75000000       0.50000000       0.13961000 </v>
    <v>       0.50000000       0.00000000       0.01461000 </v>
    <v>       0.75000000       0.00000000       0.01461000 </v>
    <v>       0.62500000       0.80844000       0.18750000 </v>
    <v>       0.87500000       0.80844000       0.18750000 </v>
    <v>       0.62500000       0.30844000       0.06250000 </v>
    <v>       0.87500000       0.30844000       0.06250000 </v>
    <v>       0.50000000       0.50000000       0.23539000 </v>
    <v>       0.75000000       0.50000000       0.23539000 </v>
    <v>       0.50000000       0.00000000       0.11039000 </v>
    <v>       0.75000000       0.00000000       0.11039000 </v>
    <v>       0.62500000       0.19156000       0.18750000 </v>
    <v>       0.87500000       0.19156000       0.18750000 </v>
    <v>       0.62500000       0.69156000       0.06250000 </v>
    <v>       0.87500000       0.69156000       0.06250000 </v>
    <v>       0.49637292       0.50000000       0.38820110 </v>
    <v>       0.75023635       0.50000000       0.39130459 </v>
    <v>       0.50055390       0.00000000       0.26477411 </v>
    <v>       0.74969253       0.00000000       0.26479777 </v>
    <v>       0.62530925       0.80779667       0.43785432 </v>
    <v>       0.87566241       0.80760255       0.44050362 </v>
    <v>       0.62507443       0.30769013       0.31326226 </v>
    <v>       0.87484962       0.30809515       0.31340421 </v>
    <v>       0.50105330       0.50000000       0.48308004 </v>
    <v>       0.49981702       0.00000000       0.36150090 </v>
    <v>       0.75028798       0.00000000       0.36194136 </v>
    <v>       0.62530925       0.19220333       0.43785432 </v>
    <v>       0.87566241       0.19239745       0.44050362 </v>
    <v>       0.62507443       0.69230987       0.31326226 </v>
    <v>       0.87484962       0.69190485       0.31340421 </v>
    <v>       0.74842765       0.00000000       0.51280347 </v>
    <v>       0.50217689       0.00000000       0.51206302 </v>
   </varray>
  </structure>
  <varray name="forces" >
   <v>      -0.01487622       0.00000000      -0.29129043 </v>
   <v>      -0.00454000       0.00000000      -0.30360212 </v>
   <v>      -0.01854983       0.00000000      -0.95470131 </v>
   <v>       0.01278122       0.00000000      -0.94264511 </v>
   <v>       0.02003442       0.00000000       1.60723006 </v>
   <v>      -0.00422527       0.00000000       1.62325221 </v>
   <v>      -0.01187784       0.00000000      -0.26347403 </v>
   <v>      -0.00585639       0.00000000      -0.26843788 </v>
   <v>       0.00499042       0.00000000      -0.00304032 </v>
   <v>       0.00854550       0.00000000      -0.00215539 </v>
   <v>       0.00548111       0.00000000       0.00425949 </v>
   <v>      -0.01063087       0.00000000      -0.01000673 </v>
   <v>       0.01491171       0.00000000      -0.00030816 </v>
   <v>       0.00720836       0.00000000       0.00854476 </v>
   <v>       0.00991657       0.00000000      -0.00858854 </v>
   <v>      -0.00650953       0.00000000      -0.00509075 </v>
   <v>      -0.02107882       0.00000000      -0.14244081 </v>
   <v>       0.01653457       0.00000000      -0.17164133 </v>
   <v>      -0.00182687       0.00000000       0.81422814 </v>
   <v>      -0.00081642       0.00000000       0.80663131 </v>
   <v>      -0.04889451      -0.01418291      -0.02826707 </v>
   <v>       0.06328225      -0.02174234      -0.03939946 </v>
   <v>      -0.04988304      -0.04317970      -0.68409568 </v>
   <v>       0.05394587      -0.05041443      -0.68346267 </v>
   <v>       0.03591206       0.00000000       0.32953680 </v>
   <v>      -0.01301879       0.00000000       0.31237465 </v>
   <v>      -0.01044376       0.00000000       0.20799085 </v>
   <v>       0.00243191       0.00000000       0.21660820 </v>
   <v>      -0.04889451       0.01418291      -0.02826707 </v>
   <v>       0.06328225       0.02174234      -0.03939946 </v>
   <v>      -0.04988304       0.04317970      -0.68409568 </v>
   <v>       0.05394587       0.05041443      -0.68346267 </v>
   <v>      -0.01280029       0.00000000       0.02046286 </v>
   <v>      -0.00530008       0.00000000      -0.00147326 </v>
   <v>      -0.01595962       0.00000000       0.00094822 </v>
   <v>       0.00433602       0.00000000       0.00448354 </v>
   <v>      -0.00938029       0.00471686       0.00097962 </v>
   <v>       0.00431713      -0.00457261       0.00581462 </v>
   <v>       0.00374081       0.00031096       0.00179096 </v>
   <v>      -0.00750375       0.00475404       0.01686742 </v>
   <v>       0.01657867       0.00000000       0.00695910 </v>
   <v>       0.00738390       0.00000000       0.03041212 </v>
   <v>      -0.01909787       0.00000000       0.00141816 </v>
   <v>      -0.00720495       0.00000000       0.00065754 </v>
   <v>      -0.00938029      -0.00471686       0.00097962 </v>
   <v>       0.00431713       0.00457261       0.00581462 </v>
   <v>       0.00374081      -0.00031096       0.00179096 </v>
   <v>      -0.00750375      -0.00475404       0.01686742 </v>
   <v>       0.04973922       0.00000000      -0.28664531 </v>
   <v>      -0.05050844       0.00000000      -0.29415873 </v>
   <v>      -0.02991845       0.00000000      -0.93426396 </v>
   <v>       0.03194585       0.00000000      -0.94691076 </v>
   <v>      -0.01656443       0.00000000       1.59682675 </v>
   <v>      -0.00515401       0.00000000       1.48288157 </v>
   <v>       0.00320094       0.00000000      -0.18378901 </v>
   <v>       0.02303396       0.00000000      -0.15517618 </v>
   <v>       0.01539100       0.00000000       0.00841498 </v>
   <v>      -0.00880755       0.00000000       0.02686544 </v>
   <v>      -0.00295099       0.00000000      -0.02720400 </v>
   <v>       0.00981236       0.00000000      -0.01839269 </v>
   <v>       0.01126994       0.00000000       0.01520233 </v>
   <v>       0.00604487       0.00000000      -0.00385076 </v>
   <v>      -0.00643141       0.00000000      -0.03037542 </v>
   <v>       0.01247576       0.00000000      -0.00622580 </v>
   <v>       0.01243676       0.00000000      -0.16429280 </v>
   <v>      -0.01533280       0.00000000      -0.03311640 </v>
   <v>       0.00226848       0.00000000       0.80935949 </v>
   <v>      -0.00005874       0.00000000       0.81096536 </v>
   <v>      -0.05906949      -0.04055392      -0.04074536 </v>
   <v>       0.04696467      -0.02821948      -0.03001893 </v>
   <v>      -0.03963743      -0.04961598      -0.68263080 </v>
   <v>       0.03630896      -0.04902843      -0.68111837 </v>
   <v>      -0.02084773       0.00000000       0.23174596 </v>
   <v>       0.02653722       0.00000000       0.47058716 </v>
   <v>       0.01132796       0.00000000       0.22685865 </v>
   <v>      -0.00874055       0.00000000       0.25161468 </v>
   <v>      -0.05906949       0.04055392      -0.04074536 </v>
   <v>       0.04696467       0.02821948      -0.03001893 </v>
   <v>      -0.03963743       0.04961598      -0.68263080 </v>
   <v>       0.03630896       0.04902843      -0.68111837 </v>
   <v>      -0.00536051       0.00000000       0.00041106 </v>
   <v>       0.01458062       0.00000000       0.02774271 </v>
   <v>       0.00510191       0.00000000      -0.00880172 </v>
   <v>      -0.00482124       0.00000000       0.01309004 </v>
   <v>       0.00630341      -0.00282195       0.02094802 </v>
   <v>      -0.00769312      -0.00234437       0.01534442 </v>
   <v>      -0.00923315       0.00683543       0.01376064 </v>
   <v>      -0.00616165       0.00367039       0.00661443 </v>
   <v>      -0.02115068       0.00000000       0.01949821 </v>
   <v>       0.02213910       0.00000000       0.00496646 </v>
   <v>       0.00177065       0.00000000       0.00674656 </v>
   <v>       0.00630341       0.00282195       0.02094802 </v>
   <v>      -0.00769312       0.00234437       0.01534442 </v>
   <v>      -0.00923315      -0.00683543       0.01376064 </v>
   <v>      -0.00616165      -0.00367039       0.00661443 </v>
   <v>       0.03005498       0.00000000       0.01343667 </v>
   <v>      -0.02973043       0.00000000       0.02412408 </v>
  </varray>
  <varray name="stress" >
   <v>     -14.34808317       0.00000000      -0.30882454 </v>
   <v>       0.00000000      -6.71080111       0.00000000 </v>
   <v>      -0.30882461       0.00000000      -3.64948567 </v>
  </varray>
  <energy>
   <i name="e_fr_energy">   -619.60298480 </i>
   <i name="e_wo_entrp">   -619.56725813 </i>
   <i name="e_0_energy">     -0.07145333 </i>
  </energy>
  <kpoints>
   <generation param="Gamma">
    <v type="int" name="divisions">       3        3        1 </v>
    <v name="usershift">      0.00000000       0.00000000       0.00000000 </v>
    <v name="genvec1">      0.33333333       0.00000000       0.00000000 </v>
    <v name="genvec2">      0.00000000       0.33333333       0.00000000 </v>
    <v name="genvec3">      0.00000000       0.00000000       1.00000000 </v>
    <v name="shift">      0.00000000       0.00000000       0.00000000 </v>
   </generation>
   <varray name="kpointlist" >
    <v>       0.00000000       0.00000000       0.00000000 </v>
    <v>       0.33333333       0.00000000       0.00000000 </v>
    <v>       0.00000000       0.33333333       0.00000000 </v>
    <v>       0.33333333       0.33333333       0.00000000 </v>
   </varray>
   <varray name="weights" >
    <v>       0.11111111 </v>
    <v>       0.22222222 </v>
    <v>       0.22222222 </v>
    <v>       0.44444444 </v>
   </varray>
  </kpoints>
[...]
       <r>   -11.0522     0.0000    65.0000 </r>
       <r>   -10.9478     0.0000    65.0000 </r>
       <r>   -10.8433     0.0000    65.0000 </r>
       <r>   -10.7389     0.0000    65.0000 </r>
       <r>   -10.6344     0.0000    65.0000 </r>
       <r>   -10.5300     0.0000    65.0000 </r>
       <r>   -10.4255     0.0000    65.0000 </r>
       <r>   -10.3211     0.0000    65.0000 </r>
       <r>   -10.2166     0.0000    65.0000 </r>
       <r>   -10.1122     0.0000    65.0000 </r>
       <r>   -10.0078     0.0000    65.0000 </r>
       <r>    -9.9033     0.0000    65.0000 </r>
       <r>    -9.7989     0.0000    65.0000 </r>
       <r>    -9.6944     0.0000    65.0000 </r>
       <r>    -9.5900     0.0038    65.0004 </r>
       <r>    -9.4855     1.0003    65.1049 </r>
       <r>    -9.3811     5.7599    65.7065 </r>
       <r>    -9.2766     5.5793    66.2892 </r>
       <r>    -9.1722     3.0781    66.6107 </r>
       <r>    -9.0677    10.3919    67.6961 </r>
       <r>    -8.9633    13.4174    69.0975 </r>
       <r>    -8.8589     4.7165    69.5901 </r>
       <r>    -8.7544    10.6084    70.6981 </r>
       <r>    -8.6500    11.3345    71.8819 </r>
       <r>    -8.5455    18.1447    73.7770 </r>
       <r>    -8.4411    21.5070    76.0233 </r>
       <r>    -8.3366    17.9892    77.9022 </r>
       <r>    -8.2322    22.6848    80.2715 </r>
       <r>    -8.1277    39.2572    84.3717 </r>
       <r>    -8.0233    29.3320    87.4353 </r>
       <r>    -7.9189    36.2229    91.2186 </r>
       <r>    -7.8144    51.0034    96.5457 </r>
       <r>    -7.7100    58.3193   102.6369 </r>
       <r>    -7.6055    60.7370   108.9805 </r>
       <r>    -7.5011    42.9398   113.4654 </r>
       <r>    -7.3966    38.3988   117.4760 </r>
       <r>    -7.2922    28.0953   120.4104 </r>
       <r>    -7.1877    24.1082   122.9284 </r>
       <r>    -7.0833    25.9070   125.6342 </r>
       <r>    -6.9788    28.6139   128.6228 </r>
       <r>    -6.8744    23.5487   131.0823 </r>
       <r>    -6.7700    31.5381   134.3763 </r>
       <r>    -6.6655    24.5578   136.9413 </r>
       <r>    -6.5611    20.1065   139.0413 </r>
       <r>    -6.4566    12.8921   140.3878 </r>
       <r>    -6.3522    17.2917   142.1938 </r>
       <r>    -6.2477    27.3898   145.0546 </r>
       <r>    -6.1433    30.9192   148.2839 </r>
       <r>    -6.0388    27.2983   151.1351 </r>
       <r>    -5.9344    31.4450   154.4194 </r>
       <r>    -5.8300    35.5502   158.1324 </r>
       <r>    -5.7255    33.4064   161.6216 </r>
       <r>    -5.6211    39.9934   165.7987 </r>
       <r>    -5.5166    46.2935   170.6338 </r>
       <r>    -5.4122    40.6196   174.8763 </r>
       <r>    -5.3077    35.9194   178.6279 </r>
       <r>    -5.2033    40.1060   182.8168 </r>
       <r>    -5.0988    38.7896   186.8682 </r>
       <r>    -4.9944    41.5713   191.2101 </r>
       <r>    -4.8899    31.3456   194.4840 </r>
       <r>    -4.7855    34.9585   198.1352 </r>
       <r>    -4.6811    42.4405   202.5679 </r>
       <r>    -4.5766    40.5775   206.8061 </r>
       <r>    -4.4722    28.7701   209.8110 </r>
       <r>    -4.3677    26.7222   212.6020 </r>
       <r>    -4.2633    27.3098   215.4543 </r>
       <r>    -4.1588    23.3882   217.8971 </r>
       <r>    -4.0544    27.7107   220.7914 </r>
       <r>    -3.9499    28.5406   223.7723 </r>
       <r>    -3.8455    33.7821   227.3006 </r>
       <r>    -3.7411    34.9637   230.9524 </r>
       <r>    -3.6366    29.3086   234.0136 </r>
       <r>    -3.5322    31.2563   237.2781 </r>
       <r>    -3.4277    21.5504   239.5290 </r>
       <r>    -3.3233    25.7374   242.2171 </r>
       <r>    -3.2188    18.7584   244.1763 </r>
       <r>    -3.1144    27.2860   247.0262 </r>
       <r>    -3.0099    37.8788   250.9825 </r>
       <r>    -2.9055    23.5258   253.4396 </r>
       <r>    -2.8010    17.6672   255.2849 </r>
       <r>    -2.6966    18.0867   257.1739 </r>
       <r>    -2.5922    15.3707   258.7793 </r>
       <r>    -2.4877    17.2910   260.5853 </r>
       <r>    -2.3833    21.4477   262.8254 </r>
       <r>    -2.2788    26.1856   265.5604 </r>
       <r>    -2.1744    29.7102   268.6634 </r>
       <r>    -2.0699    34.0013   272.2147 </r>
       <r>    -1.9655    55.6129   278.0232 </r>
       <r>    -1.8610    61.2024   284.4155 </r>
       <r>    -1.7566    46.6519   289.2881 </r>
       <r>    -1.6521    42.5335   293.7305 </r>
       <r>    -1.5477    48.8546   298.8331 </r>
       <r>    -1.4433    40.3997   303.0526 </r>
       <r>    -1.3388    39.5301   307.1814 </r>
       <r>    -1.2344    35.1927   310.8571 </r>
       <r>    -1.1299    26.1517   313.5885 </r>
       <r>    -1.0255    19.8359   315.6603 </r>
       <r>    -0.9210    26.1709   318.3937 </r>
       <r>    -0.8166    29.1200   321.4351 </r>
       <r>    -0.7121    31.0737   324.6806 </r>
       <r>    -0.6077    27.6979   327.5735 </r>
       <r>    -0.5033    29.9238   330.6989 </r>
       <r>    -0.3988    22.6910   333.0689 </r>
       <r>    -0.2944    26.8120   335.8693 </r>
       <r>    -0.1899    26.9774   338.6869 </r>
       <r>    -0.0855    31.6836   341.9961 </r>
       <r>     0.0190    35.1973   345.6723 </r>
       <r>     0.1234    32.2475   349.0404 </r>
       <r>     0.2279    32.0574   352.3886 </r>
       <r>     0.3323    22.7596   354.7658 </r>
       <r>     0.4368    27.0702   357.5931 </r>
       <r>     0.5412    24.4264   360.1443 </r>
       <r>     0.6456    12.3695   361.4362 </r>
       <r>     0.7501    13.5884   362.8555 </r>
       <r>     0.8545    12.1672   364.1263 </r>
       <r>     0.9590    10.2825   365.2003 </r>
       <r>     1.0634     4.5365   365.6741 </r>
       <r>     1.1679    12.8795   367.0193 </r>
       <r>     1.2723    13.9437   368.4756 </r>
       <r>     1.3768     9.4451   369.4621 </r>
       <r>     1.4812     9.9461   370.5009 </r>
       <r>     1.5856    10.1109   371.5570 </r>
       <r>     1.6901     9.3461   372.5331 </r>
       <r>     1.7945    18.0905   374.4226 </r>
       <r>     1.8990    17.0450   376.2028 </r>
       <r>     2.0034    14.6862   377.7368 </r>
       <r>     2.1079    11.2787   378.9148 </r>
       <r>     2.2123    16.7170   380.6608 </r>
       <r>     2.3168    22.9631   383.0591 </r>
       <r>     2.4212    26.8167   385.8600 </r>
       <r>     2.5257    14.9679   387.4233 </r>
       <r>     2.6301    14.5268   388.9406 </r>
       <r>     2.7345    15.4921   390.5587 </r>
       <r>     2.8390    22.2848   392.8862 </r>
       <r>     2.9434    14.1082   394.3597 </r>
       <r>     3.0479    19.9088   396.4391 </r>
       <r>     3.1523    19.6949   398.4961 </r>
       <r>     3.2568    24.8956   401.0964 </r>
       <r>     3.3612    26.0701   403.8193 </r>
       <r>     3.4657    22.6093   406.1807 </r>
       <r>     3.5701    21.9687   408.4752 </r>
       <r>     3.6745    21.3422   410.7043 </r>
       <r>     3.7790    22.3726   413.0410 </r>
       <r>     3.8834    21.0551   415.2401 </r>
       <r>     3.9879    17.4053   417.0580 </r>
       <r>     4.0923    11.2329   418.2312 </r>
       <r>     4.1968     6.8814   418.9500 </r>
       <r>     4.3012     6.2020   419.5977 </r>
       <r>     4.4057     3.8284   419.9976 </r>
       <r>     4.5101     2.9131   420.3019 </r>
       <r>     4.6146     3.4009   420.6571 </r>
       <r>     4.7190     4.3372   421.1101 </r>
       <r>     4.8234     5.5909   421.6940 </r>
       <r>     4.9279     9.8774   422.7257 </r>
       <r>     5.0323     2.7014   423.0078 </r>
       <r>     5.1368     1.8663   423.2027 </r>
       <r>     5.2412     2.0569   423.4176 </r>
       <r>     5.3457     5.6210   424.0046 </r>
       <r>     5.4501     5.9074   424.6216 </r>
       <r>     5.5546     3.4769   424.9848 </r>
       <r>     5.6590     4.5567   425.4607 </r>
       <r>     5.7635     3.2506   425.8002 </r>
       <r>     5.8679     3.3041   426.1453 </r>
       <r>     5.9723     5.6989   426.7405 </r>
       <r>     6.0768     7.3889   427.5123 </r>
       <r>     6.1812     5.5125   428.0880 </r>
       <r>     6.2857    12.6623   429.4105 </r>
       <r>     6.3901     9.1073   430.3617 </r>
       <r>     6.4946     8.9870   431.3004 </r>
       <r>     6.5990     9.4188   432.2841 </r>
       <r>     6.7035     5.2328   432.8307 </r>
       <r>     6.8079    11.9821   434.0821 </r>
       <r>     6.9123     6.5361   434.7648 </r>
       <r>     7.0168    13.0758   436.1305 </r>
       <r>     7.1212    11.3351   437.3144 </r>
       <r>     7.2257     7.4367   438.0911 </r>
       <r>     7.3301     7.3545   438.8593 </r>
       <r>     7.4346     8.6623   439.7640 </r>
       <r>     7.5390     2.2251   439.9964 </r>
       <r>     7.6435     0.0343   440.0000 </r>
       <r>     7.7479     0.0000   440.0000 </r>
       <r>     7.8524     0.0000   440.0000 </r>
       <r>     7.9568     0.0000   440.0000 </r>
       <r>     8.0612     0.0000   440.0000 </r>
       <r>     8.1657     0.0000   440.0000 </r>
       <r>     8.2701     0.0000   440.0000 </r>
       <r>     8.3746     0.0000   440.0000 </r>
       <r>     8.4790     0.0000   440.0000 </r>
       <r>     8.5835     0.0000   440.0000 </r>
       <r>     8.6879     0.0000   440.0000 </r>
       <r>     8.7924     0.0000   440.0000 </r>
       <r>     8.8968     0.0000   440.0000 </r>
      </set>
     </set>
    </array>
   </total>
  </dos>
 </calculation>
 <structure name="finalpos" >
  <crystal>
   <varray name="basis" >
    <v>      12.80853200       0.00000000       0.00000000 </v>
    <v>       0.00000000       6.47024300       0.00000000 </v>
    <v>       0.00000000       0.00000000      25.88097200 </v>
   </varray>
   <i name="volume">   2144.86781344 </i>
   <varray name="rec_basis" >
    <v>       0.07807296       0.00000000       0.00000000 </v>
    <v>       0.00000000       0.15455370       0.00000000 </v>
    <v>       0.00000000       0.00000000       0.03863843 </v>
   </varray>
  </crystal>
  <varray name="positions" >
   <v>       0.12500000       0.50000000       0.18750000 </v>
   <v>       0.37500000       0.50000000       0.18750000 </v>
   <v>       0.12500000       0.00000000       0.06250000 </v>
   <v>       0.37500000       0.00000000       0.06250000 </v>
   <v>       0.00000000       0.50000000       0.06250000 </v>
   <v>       0.25000000       0.50000000       0.06250000 </v>
   <v>       0.00000000       0.00000000       0.18750000 </v>
   <v>       0.25000000       0.00000000       0.18750000 </v>
   <v>       0.12548958       0.50000000       0.43870306 </v>
   <v>       0.37519891       0.50000000       0.43811548 </v>
   <v>       0.12497675       0.00000000       0.31180276 </v>
   <v>       0.37680899       0.00000000       0.31257453 </v>
   <v>       0.99969020       0.50000000       0.31286696 </v>
   <v>       0.25015487       0.50000000       0.31262716 </v>
   <v>       0.99954470       0.00000000       0.43507857 </v>
   <v>       0.24997713       0.00000000       0.43466321 </v>
   <v>       0.00000000       0.50000000       0.13961000 </v>
   <v>       0.25000000       0.50000000       0.13961000 </v>
   <v>       0.00000000       0.00000000       0.01461000 </v>
   <v>       0.25000000       0.00000000       0.01461000 </v>
   <v>       0.12500000       0.80844000       0.18750000 </v>
   <v>       0.37500000       0.80844000       0.18750000 </v>
   <v>       0.12500000       0.30844000       0.06250000 </v>
   <v>       0.37500000       0.30844000       0.06250000 </v>
   <v>       0.00000000       0.50000000       0.23539000 </v>
   <v>       0.25000000       0.50000000       0.23539000 </v>
   <v>       0.00000000       0.00000000       0.11039000 </v>
   <v>       0.25000000       0.00000000       0.11039000 </v>
   <v>       0.12500000       0.19156000       0.18750000 </v>
   <v>       0.37500000       0.19156000       0.18750000 </v>
   <v>       0.12500000       0.69156000       0.06250000 </v>
   <v>       0.37500000       0.69156000       0.06250000 </v>
   <v>       0.00366870       0.50000000       0.38875489 </v>
   <v>       0.25002646       0.50000000       0.38946853 </v>
   <v>       0.99936237       0.00000000       0.26442890 </v>
   <v>       0.25052697       0.00000000       0.26437270 </v>
   <v>       0.12531147       0.81028746       0.44052222 </v>
   <v>       0.37438172       0.80888054       0.43902486 </v>
   <v>       0.12490598       0.30835543       0.31200945 </v>
   <v>       0.37556021       0.30794515       0.31198006 </v>
   <v>       0.99959745       0.50000000       0.48429816 </v>
   <v>       0.25103756       0.50000000       0.48366907 </v>
   <v>       0.00005561       0.00000000       0.35955987 </v>
   <v>       0.25027762       0.00000000       0.35933503 </v>
   <v>       0.12531147       0.18971254       0.44052222 </v>
   <v>       0.37438172       0.19111946       0.43902486 </v>
   <v>       0.12490598       0.69164457       0.31200945 </v>
   <v>       0.37556021       0.69205485       0.31198006 </v>
   <v>       0.62500000       0.50000000       0.18750000 </v>
   <v>       0.87500000       0.50000000       0.18750000 </v>
   <v>       0.62500000       0.00000000       0.06250000 </v>
   <v>       0.87500000       0.00000000       0.06250000 </v>
   <v>       0.50000000       0.50000000       0.06250000 </v>
   <v>       0.75000000       0.50000000       0.06250000 </v>
   <v>       0.50000000       0.00000000       0.18750000 </v>
   <v>       0.75000000       0.00000000       0.18750000 </v>
   <v>       0.62386619       0.50000000       0.43742715 </v>
   <v>       0.87624317       0.50000000       0.43844842 </v>
   <v>       0.62510735       0.00000000       0.31338678 </v>
   <v>       0.87341924       0.00000000       0.31291359 </v>
   <v>       0.50045744       0.50000000       0.31259641 </v>
   <v>       0.75002498       0.50000000       0.31346642 </v>
   <v>       0.50034947       0.00000000       0.44257753 </v>
   <v>       0.74990463       0.00000000       0.44311111 </v>
   <v>       0.50000000       0.50000000       0.13961000 </v>
   <v>       0.75000000       0.50000000       0.13961000 </v>
   <v>       0.50000000       0.00000000       0.01461000 </v>
   <v>       0.75000000       0.00000000       0.01461000 </v>
   <v>       0.62500000       0.80844000       0.18750000 </v>
   <v>       0.87500000       0.80844000       0.18750000 </v>
   <v>       0.62500000       0.30844000       0.06250000 </v>
   <v>       0.87500000       0.30844000       0.06250000 </v>
   <v>       0.50000000       0.50000000       0.23539000 </v>
   <v>       0.75000000       0.50000000       0.23539000 </v>
   <v>       0.50000000       0.00000000       0.11039000 </v>
   <v>       0.75000000       0.00000000       0.11039000 </v>
   <v>       0.62500000       0.19156000       0.18750000 </v>
   <v>       0.87500000       0.19156000       0.18750000 </v>
   <v>       0.62500000       0.69156000       0.06250000 </v>
   <v>       0.87500000       0.69156000       0.06250000 </v>
   <v>       0.49637292       0.50000000       0.38820110 </v>
   <v>       0.75023635       0.50000000       0.39130459 </v>
   <v>       0.50055390       0.00000000       0.26477411 </v>
   <v>       0.74969253       0.00000000       0.26479777 </v>
   <v>       0.62530925       0.80779667       0.43785432 </v>
   <v>       0.87566241       0.80760255       0.44050362 </v>
   <v>       0.62507443       0.30769013       0.31326226 </v>
   <v>       0.87484962       0.30809515       0.31340421 </v>
   <v>       0.50105330       0.50000000       0.48308004 </v>
   <v>       0.49981702       0.00000000       0.36150090 </v>
   <v>       0.75028798       0.00000000       0.36194136 </v>
   <v>       0.62530925       0.19220333       0.43785432 </v>
   <v>       0.87566241       0.19239745       0.44050362 </v>
   <v>       0.62507443       0.69230987       0.31326226 </v>
   <v>       0.87484962       0.69190485       0.31340421 </v>
   <v>       0.74842765       0.00000000       0.51280347 </v>
   <v>       0.50217689       0.00000000       0.51148345 </v>
  </varray>
  <varray name="selective"  type="logical" >
   <v type="logical" >  F  F  F </v>
   <v type="logical" >  F  F  F </v>
   <v type="logical" >  F  F  F </v>
   <v type="logical" >  F  F  F </v>
   <v type="logical" >  F  F  F </v>
   <v type="logical" >  F  F  F </v>
   <v type="logical" >  F  F  F </v>
   <v type="logical" >  F  F  F </v>
   <v type="logical" >  F  F  F </v>
   <v type="logical" >  F  F  F </v>
   <v type="logical" >  F  F  F </v>
   <v type="logical" >  F  F  F </v>
   <v type="logical" >  F  F  F </v>
   <v type="logical" >  F  F  F </v>
   <v type="logical" >  F  F  F </v>
   <v type="logical" >  F  F  F </v>
   <v type="logical" >  F  F  F </v>
   <v type="logical" >  F  F  F </v>
   <v type="logical" >  F  F  F </v>
   <v type="logical" >  F  F  F </v>
   <v type="logical" >  F  F  F </v>
   <v type="logical" >  F  F  F </v>
   <v type="logical" >  F  F  F </v>
   <v type="logical" >  F  F  F </v>
   <v type="logical" >  F  F  F </v>
   <v type="logical" >  F  F  F </v>
   <v type="logical" >  F  F  F </v>
   <v type="logical" >  F  F  F </v>
   <v type="logical" >  F  F  F </v>
   <v type="logical" >  F  F  F </v>
   <v type="logical" >  F  F  F </v>
   <v type="logical" >  F  F  F </v>
   <v type="logical" >  F  F  F </v>
   <v type="logical" >  F  F  F </v>
   <v type="logical" >  F  F  F </v>
   <v type="logical" >  F  F  F </v>
   <v type="logical" >  F  F  F </v>
   <v type="logical" >  F  F  F </v>
   <v type="logical" >  F  F  F </v>
   <v type="logical" >  F  F  F </v>
   <v type="logical" >  F  F  F </v>
   <v type="logical" >  F  F  F </v>
   <v type="logical" >  F  F  F </v>
   <v type="logical" >  F  F  F </v>
   <v type="logical" >  F  F  F </v>
   <v type="logical" >  F  F  F </v>
   <v type="logical" >  F  F  F </v>
   <v type="logical" >  F  F  F </v>
   <v type="logical" >  F  F  F </v>
   <v type="logical" >  F  F  F </v>
   <v type="logical" >  F  F  F </v>
   <v type="logical" >  F  F  F </v>
   <v type="logical" >  F  F  F </v>
   <v type="logical" >  F  F  F </v>
   <v type="logical" >  F  F  F </v>
   <v type="logical" >  F  F  F </v>
   <v type="logical" >  F  F  F </v>
   <v type="logical" >  F  F  F </v>
   <v type="logical" >  F  F  F </v>
   <v type="logical" >  F  F  F </v>
   <v type="logical" >  F  F  F </v>
   <v type="logical" >  F  F  F </v>
   <v type="logical" >  F  F  F </v>
   <v type="logical" >  F  F  F </v>
   <v type="logical" >  F  F  F </v>
   <v type="logical" >  F  F  F </v>
   <v type="logical" >  F  F  F </v>
   <v type="logical" >  F  F  F </v>
   <v type="logical" >  F  F  F </v>
   <v type="logical" >  F  F  F </v>
   <v type="logical" >  F  F  F </v>
   <v type="logical" >  F  F  F </v>
   <v type="logical" >  F  F  F </v>
   <v type="logical" >  F  F  F </v>
   <v type="logical" >  F  F  F </v>
   <v type="logical" >  F  F  F </v>
   <v type="logical" >  F  F  F </v>
   <v type="logical" >  F  F  F </v>
   <v type="logical" >  F  F  F </v>
   <v type="logical" >  F  F  F </v>
   <v type="logical" >  F  F  F </v>
   <v type="logical" >  F  F  F </v>
   <v type="logical" >  F  F  F </v>
   <v type="logical" >  F  F  F </v>
   <v type="logical" >  F  F  F </v>
   <v type="logical" >  F  F  F </v>
   <v type="logical" >  F  F  F </v>
   <v type="logical" >  F  F  F </v>
   <v type="logical" >  F  F  F </v>
   <v type="logical" >  F  F  F </v>
   <v type="logical" >  F  F  F </v>
   <v type="logical" >  F  F  F </v>
   <v type="logical" >  F  F  F </v>
   <v type="logical" >  F  F  F </v>
   <v type="logical" >  F  F  F </v>
   <v type="logical" >  T  T  T </v>
   <v type="logical" >  T  T  T </v>
  </varray>
  <nose>
   <v>      -3.00000000       0.00000000       0.00010000       0.00010000 </v>
  </nose>
 </structure>
</modeling>
