 100 100   0   0
  0.2144868E+02  0.1280853E-08  0.6470243E-09  0.2588097E-08  0.5000000E-15
  1.000000000000000E-004
  CAR 
 unknown system                          
     10.78439385    -22.64027703  301     -0.36837606      1.00000000
    -22.640  0.0000E+00  0.0000E+00  0.0000E+00  0.0000E+00
    -22.529  0.0000E+00  0.0000E+00  0.0000E+00  0.0000E+00
    -22.417  0.0000E+00  0.0000E+00  0.0000E+00  0.0000E+00
    -22.306  0.0000E+00  0.0000E+00  0.0000E+00  0.0000E+00
    -22.195  0.0000E+00  0.0000E+00  0.0000E+00  0.0000E+00
    -22.083  0.0000E+00  0.0000E+00  0.0000E+00  0.0000E+00
    -21.972  0.0000E+00  0.0000E+00  0.0000E+00  0.0000E+00
    -21.860  0.0000E+00  0.0000E+00  0.0000E+00  0.0000E+00
    -21.749  0.0000E+00  0.0000E+00  0.0000E+00  0.0000E+00
    -21.638  0.0000E+00  0.0000E+00  0.0000E+00  0.0000E+00
    -21.526  0.0000E+00  0.0000E+00  0.0000E+00  0.0000E+00
    -21.415  0.0000E+00  0.4475E-19  0.0000E+00  0.4986E-20
    -21.303  0.4448E-10  0.1014E-09  0.4956E-11  0.1130E-10
    -21.192  0.1279E-04  0.1882E-04  0.1425E-05  0.2096E-05
    -21.080  0.1226E-02  0.1391E-02  0.1380E-03  0.1570E-03
    -20.969  0.3267E-02  0.3614E-02  0.5020E-03  0.5596E-03
    -20.858  0.8130E-02  0.8061E-02  0.1408E-02  0.1458E-02
    -20.746  0.5516E-02  0.5215E-02  0.2022E-02  0.2039E-02
    -20.635  0.5688E-02  0.5771E-02  0.2656E-02  0.2682E-02
    -20.523  0.1041E-01  0.1061E-01  0.3816E-02  0.3864E-02
    -20.412  0.1481E-01  0.1490E-01  0.5466E-02  0.5524E-02
    -20.301  0.1518E-01  0.1553E-01  0.7157E-02  0.7254E-02
    -20.189  0.2040E-01  0.2061E-01  0.9430E-02  0.9550E-02
    -20.078  0.2318E-01  0.2326E-01  0.1201E-01  0.1214E-01
    -19.966  0.3514E-01  0.3545E-01  0.1593E-01  0.1609E-01
    -19.855  0.3942E-01  0.3994E-01  0.2032E-01  0.2054E-01
    -19.743  0.3546E-01  0.3491E-01  0.2427E-01  0.2443E-01
    -19.632  0.3572E-01  0.3544E-01  0.2825E-01  0.2838E-01
    -19.521  0.5409E-01  0.5305E-01  0.3428E-01  0.3429E-01
    -19.409  0.5279E-01  0.5362E-01  0.4016E-01  0.4026E-01
    -19.298  0.2675E-01  0.2610E-01  0.4314E-01  0.4317E-01
    -19.186  0.1803E-01  0.1543E-01  0.4515E-01  0.4489E-01
    -19.075  0.7434E-02  0.9830E-02  0.4598E-01  0.4599E-01
    -18.964  0.9798E-03  0.8269E-03  0.4609E-01  0.4608E-01
    -18.852  0.9246E-02  0.6990E-07  0.4712E-01  0.4608E-01
    -18.741  0.5198E-02  0.7519E-15  0.4770E-01  0.4608E-01
    -18.629  0.5520E-05  0.7656E-12  0.4770E-01  0.4608E-01
    -18.518  0.8915E-12  0.5012E-05  0.4770E-01  0.4608E-01
    -18.406  0.1319E-05  0.4393E-02  0.4770E-01  0.4657E-01
    -18.295  0.3268E-02  0.1314E-01  0.4806E-01  0.4803E-01
    -18.184  0.1806E-01  0.1089E-01  0.5007E-01  0.4925E-01
    -18.072  0.8419E-02  0.1723E-02  0.5101E-01  0.4944E-01
    -17.961  0.2053E-01  0.2140E-01  0.5330E-01  0.5182E-01
    -17.849  0.7746E-02  0.6711E-02  0.5416E-01  0.5257E-01
    -17.738  0.1854E-04  0.8112E-02  0.5416E-01  0.5348E-01
    -17.627  0.4476E-10  0.6122E-02  0.5416E-01  0.5416E-01
    -17.515  0.3311E-04  0.4044E-03  0.5417E-01  0.5420E-01
    -17.404  0.5094E-02  0.6412E-02  0.5473E-01  0.5492E-01
    -17.292  0.2128E-02  0.4903E-03  0.5497E-01  0.5497E-01
    -17.181  0.8000E-06  0.1234E-07  0.5497E-01  0.5497E-01
    -17.069  0.2774E-13  0.2309E-16  0.5497E-01  0.5497E-01
    -16.958  0.0000E+00  0.0000E+00  0.5497E-01  0.5497E-01
    -16.847  0.0000E+00  0.0000E+00  0.5497E-01  0.5497E-01
    -16.735  0.0000E+00  0.0000E+00  0.5497E-01  0.5497E-01
    -16.624  0.0000E+00  0.0000E+00  0.5497E-01  0.5497E-01
    -16.512  0.0000E+00  0.0000E+00  0.5497E-01  0.5497E-01
    -16.401  0.0000E+00  0.0000E+00  0.5497E-01  0.5497E-01
    -16.290  0.0000E+00  0.0000E+00  0.5497E-01  0.5497E-01
    -16.178  0.0000E+00  0.0000E+00  0.5497E-01  0.5497E-01
    -16.067  0.0000E+00  0.0000E+00  0.5497E-01  0.5497E-01
    -15.955  0.0000E+00  0.0000E+00  0.5497E-01  0.5497E-01
    -15.844  0.0000E+00  0.0000E+00  0.5497E-01  0.5497E-01
    -15.733  0.0000E+00  0.0000E+00  0.5497E-01  0.5497E-01
    -15.621  0.0000E+00  0.0000E+00  0.5497E-01  0.5497E-01
    -15.510  0.0000E+00  0.0000E+00  0.5497E-01  0.5497E-01
    -15.398  0.0000E+00  0.0000E+00  0.5497E-01  0.5497E-01
    -15.287  0.0000E+00  0.0000E+00  0.5497E-01  0.5497E-01
    -15.175  0.0000E+00  0.0000E+00  0.5497E-01  0.5497E-01
    -15.064  0.0000E+00  0.0000E+00  0.5497E-01  0.5497E-01
    -14.953  0.0000E+00  0.0000E+00  0.5497E-01  0.5497E-01
    -14.841  0.0000E+00  0.0000E+00  0.5497E-01  0.5497E-01
    -14.730  0.0000E+00  0.0000E+00  0.5497E-01  0.5497E-01
    -14.618  0.0000E+00  0.0000E+00  0.5497E-01  0.5497E-01
    -14.507  0.0000E+00  0.0000E+00  0.5497E-01  0.5497E-01
    -14.396  0.0000E+00  0.0000E+00  0.5497E-01  0.5497E-01
    -14.284  0.0000E+00  0.0000E+00  0.5497E-01  0.5497E-01
    -14.173  0.0000E+00  0.0000E+00  0.5497E-01  0.5497E-01
    -14.061  0.0000E+00  0.0000E+00  0.5497E-01  0.5497E-01
    -13.950  0.0000E+00  0.0000E+00  0.5497E-01  0.5497E-01
    -13.838  0.0000E+00  0.0000E+00  0.5497E-01  0.5497E-01
    -13.727  0.0000E+00  0.0000E+00  0.5497E-01  0.5497E-01
    -13.616  0.0000E+00  0.0000E+00  0.5497E-01  0.5497E-01
    -13.504  0.0000E+00  0.0000E+00  0.5497E-01  0.5497E-01
    -13.393  0.0000E+00  0.0000E+00  0.5497E-01  0.5497E-01
    -13.281  0.0000E+00  0.0000E+00  0.5497E-01  0.5497E-01
    -13.170  0.0000E+00  0.0000E+00  0.5497E-01  0.5497E-01
    -13.059  0.0000E+00  0.0000E+00  0.5497E-01  0.5497E-01
    -12.947  0.0000E+00  0.0000E+00  0.5497E-01  0.5497E-01
    -12.836  0.0000E+00  0.0000E+00  0.5497E-01  0.5497E-01
    -12.724  0.0000E+00  0.0000E+00  0.5497E-01  0.5497E-01
    -12.613  0.0000E+00  0.0000E+00  0.5497E-01  0.5497E-01
    -12.501  0.0000E+00  0.0000E+00  0.5497E-01  0.5497E-01
    -12.390  0.0000E+00  0.0000E+00  0.5497E-01  0.5497E-01
    -12.279  0.0000E+00  0.0000E+00  0.5497E-01  0.5497E-01
    -12.167  0.0000E+00  0.0000E+00  0.5497E-01  0.5497E-01
    -12.056  0.0000E+00  0.0000E+00  0.5497E-01  0.5497E-01
    -11.944  0.0000E+00  0.0000E+00  0.5497E-01  0.5497E-01
    -11.833  0.0000E+00  0.0000E+00  0.5497E-01  0.5497E-01
    -11.722  0.0000E+00  0.0000E+00  0.5497E-01  0.5497E-01
    -11.610  0.0000E+00  0.0000E+00  0.5497E-01  0.5497E-01
    -11.499  0.0000E+00  0.0000E+00  0.5497E-01  0.5497E-01
    -11.387  0.0000E+00  0.0000E+00  0.5497E-01  0.5497E-01
    -11.276  0.0000E+00  0.0000E+00  0.5497E-01  0.5497E-01
    -11.164  0.0000E+00  0.0000E+00  0.5497E-01  0.5497E-01
    -11.053  0.0000E+00  0.0000E+00  0.5497E-01  0.5497E-01
    -10.942  0.0000E+00  0.0000E+00  0.5497E-01  0.5497E-01
    -10.830  0.0000E+00  0.0000E+00  0.5497E-01  0.5497E-01
    -10.719  0.0000E+00  0.0000E+00  0.5497E-01  0.5497E-01
    -10.607  0.0000E+00  0.0000E+00  0.5497E-01  0.5497E-01
    -10.496  0.0000E+00  0.0000E+00  0.5497E-01  0.5497E-01
    -10.385  0.0000E+00  0.0000E+00  0.5497E-01  0.5497E-01
    -10.273  0.0000E+00  0.0000E+00  0.5497E-01  0.5497E-01
    -10.162  0.0000E+00  0.0000E+00  0.5497E-01  0.5497E-01
    -10.050  0.0000E+00  0.0000E+00  0.5497E-01  0.5497E-01
     -9.939  0.0000E+00  0.0000E+00  0.5497E-01  0.5497E-01
     -9.827  0.6553E-13  0.1464E-12  0.5497E-01  0.5497E-01
     -9.716  0.5493E-06  0.8307E-06  0.5497E-01  0.5497E-01
     -9.605  0.7687E-03  0.8477E-03  0.5506E-01  0.5507E-01
     -9.493  0.6020E-02  0.6078E-02  0.5573E-01  0.5574E-01
     -9.382  0.2866E-02  0.2731E-02  0.5605E-01  0.5605E-01
     -9.270  0.3226E-02  0.3218E-02  0.5641E-01  0.5641E-01
     -9.159  0.8451E-02  0.8325E-02  0.5735E-01  0.5733E-01
     -9.048  0.2293E-02  0.2402E-02  0.5760E-01  0.5760E-01
     -8.936  0.9954E-02  0.1005E-01  0.5871E-01  0.5872E-01
     -8.825  0.9651E-02  0.9698E-02  0.5979E-01  0.5980E-01
     -8.713  0.1326E-01  0.1314E-01  0.6127E-01  0.6127E-01
     -8.602  0.1624E-01  0.1644E-01  0.6308E-01  0.6310E-01
     -8.490  0.1438E-01  0.1326E-01  0.6468E-01  0.6457E-01
     -8.379  0.1662E-01  0.1780E-01  0.6653E-01  0.6656E-01
     -8.268  0.2562E-01  0.2597E-01  0.6938E-01  0.6945E-01
     -8.156  0.2746E-01  0.2708E-01  0.7244E-01  0.7247E-01
     -8.045  0.2718E-01  0.2722E-01  0.7547E-01  0.7550E-01
     -7.933  0.3673E-01  0.3682E-01  0.7956E-01  0.7960E-01
     -7.822  0.5292E-01  0.4837E-01  0.8546E-01  0.8499E-01
     -7.711  0.4462E-01  0.4767E-01  0.9043E-01  0.9030E-01
     -7.599  0.4020E-01  0.4064E-01  0.9491E-01  0.9483E-01
     -7.488  0.2536E-01  0.2543E-01  0.9773E-01  0.9766E-01
     -7.376  0.2499E-01  0.2321E-01  0.1005E+00  0.1003E+00
     -7.265  0.1921E-01  0.2181E-01  0.1027E+00  0.1027E+00
     -7.154  0.2238E-01  0.2000E-01  0.1052E+00  0.1049E+00
     -7.042  0.2101E-01  0.2160E-01  0.1075E+00  0.1073E+00
     -6.931  0.2331E-01  0.2330E-01  0.1101E+00  0.1099E+00
     -6.819  0.2680E-01  0.2571E-01  0.1131E+00  0.1128E+00
     -6.708  0.2049E-01  0.2007E-01  0.1154E+00  0.1150E+00
     -6.596  0.1329E-01  0.1610E-01  0.1168E+00  0.1168E+00
     -6.485  0.1535E-01  0.1398E-01  0.1186E+00  0.1184E+00
     -6.374  0.2192E-01  0.2028E-01  0.1210E+00  0.1206E+00
     -6.262  0.2385E-01  0.2533E-01  0.1237E+00  0.1234E+00
     -6.151  0.2617E-01  0.2313E-01  0.1266E+00  0.1260E+00
     -6.039  0.2686E-01  0.2454E-01  0.1296E+00  0.1288E+00
     -5.928  0.2387E-01  0.2418E-01  0.1322E+00  0.1315E+00
     -5.817  0.2747E-01  0.2767E-01  0.1353E+00  0.1345E+00
     -5.705  0.3405E-01  0.3376E-01  0.1391E+00  0.1383E+00
     -5.594  0.3738E-01  0.3891E-01  0.1432E+00  0.1426E+00
     -5.482  0.2982E-01  0.2955E-01  0.1466E+00  0.1459E+00
     -5.371  0.3244E-01  0.3154E-01  0.1502E+00  0.1494E+00
     -5.259  0.3454E-01  0.3345E-01  0.1540E+00  0.1532E+00
     -5.148  0.3173E-01  0.3424E-01  0.1576E+00  0.1570E+00
     -5.037  0.2554E-01  0.2737E-01  0.1604E+00  0.1600E+00
     -4.925  0.2630E-01  0.2650E-01  0.1633E+00  0.1630E+00
     -4.814  0.3988E-01  0.3649E-01  0.1678E+00  0.1670E+00
     -4.702  0.3287E-01  0.3373E-01  0.1714E+00  0.1708E+00
     -4.591  0.1828E-01  0.2220E-01  0.1735E+00  0.1733E+00
     -4.480  0.2559E-01  0.2360E-01  0.1763E+00  0.1759E+00
     -4.368  0.2149E-01  0.2084E-01  0.1787E+00  0.1782E+00
     -4.257  0.2914E-01  0.2325E-01  0.1820E+00  0.1808E+00
     -4.145  0.2234E-01  0.2392E-01  0.1845E+00  0.1835E+00
     -4.034  0.2497E-01  0.2282E-01  0.1872E+00  0.1860E+00
     -3.922  0.2655E-01  0.3082E-01  0.1902E+00  0.1895E+00
     -3.811  0.2908E-01  0.3172E-01  0.1934E+00  0.1930E+00
     -3.700  0.2327E-01  0.2390E-01  0.1960E+00  0.1957E+00
     -3.588  0.1836E-01  0.1978E-01  0.1981E+00  0.1979E+00
     -3.477  0.2279E-01  0.2383E-01  0.2006E+00  0.2005E+00
     -3.365  0.2626E-01  0.2506E-01  0.2035E+00  0.2033E+00
     -3.254  0.2273E-01  0.2129E-01  0.2061E+00  0.2057E+00
     -3.143  0.3017E-01  0.2984E-01  0.2094E+00  0.2090E+00
     -3.031  0.2428E-01  0.2417E-01  0.2121E+00  0.2117E+00
     -2.920  0.2279E-01  0.1975E-01  0.2147E+00  0.2139E+00
     -2.808  0.1727E-01  0.1682E-01  0.2166E+00  0.2158E+00
     -2.697  0.1216E-01  0.1608E-01  0.2180E+00  0.2176E+00
     -2.585  0.1108E-01  0.1034E-01  0.2192E+00  0.2187E+00
     -2.474  0.1899E-01  0.1486E-01  0.2213E+00  0.2204E+00
     -2.363  0.2324E-01  0.2403E-01  0.2239E+00  0.2231E+00
     -2.251  0.2664E-01  0.2863E-01  0.2269E+00  0.2262E+00
     -2.140  0.3340E-01  0.3254E-01  0.2306E+00  0.2299E+00
     -2.028  0.4504E-01  0.4820E-01  0.2356E+00  0.2352E+00
     -1.917  0.4159E-01  0.4404E-01  0.2402E+00  0.2401E+00
     -1.806  0.3774E-01  0.3515E-01  0.2444E+00  0.2441E+00
     -1.694  0.3964E-01  0.3859E-01  0.2489E+00  0.2484E+00
     -1.583  0.3272E-01  0.3765E-01  0.2525E+00  0.2526E+00
     -1.471  0.3512E-01  0.3257E-01  0.2564E+00  0.2562E+00
     -1.360  0.2661E-01  0.2876E-01  0.2594E+00  0.2594E+00
     -1.248  0.1906E-01  0.1539E-01  0.2615E+00  0.2611E+00
     -1.137  0.1618E-01  0.1616E-01  0.2633E+00  0.2629E+00
     -1.026  0.2622E-01  0.2465E-01  0.2662E+00  0.2657E+00
     -0.914  0.2787E-01  0.2464E-01  0.2693E+00  0.2684E+00
     -0.803  0.2101E-01  0.1805E-01  0.2717E+00  0.2704E+00
     -0.691  0.2363E-01  0.2441E-01  0.2743E+00  0.2731E+00
     -0.580  0.2541E-01  0.2787E-01  0.2771E+00  0.2762E+00
     -0.469  0.2491E-01  0.2295E-01  0.2799E+00  0.2788E+00
     -0.357  0.2061E-01  0.1939E-01  0.2822E+00  0.2810E+00
     -0.246  0.2782E-01  0.2692E-01  0.2853E+00  0.2840E+00
     -0.134  0.2744E-01  0.2570E-01  0.2884E+00  0.2868E+00
     -0.023  0.2681E-01  0.2269E-01  0.2914E+00  0.2893E+00
      0.088  0.2272E-01  0.2413E-01  0.2939E+00  0.2920E+00
      0.200  0.2250E-01  0.1855E-01  0.2964E+00  0.2941E+00
      0.311  0.1698E-01  0.2135E-01  0.2983E+00  0.2965E+00
      0.423  0.9387E-02  0.1678E-01  0.2993E+00  0.2983E+00
      0.534  0.5275E-02  0.1023E-01  0.2999E+00  0.2995E+00
      0.646  0.4357E-02  0.3765E-02  0.3004E+00  0.2999E+00
      0.757  0.5911E-02  0.1024E-01  0.3011E+00  0.3010E+00
      0.868  0.6610E-02  0.6823E-02  0.3018E+00  0.3018E+00
      0.980  0.8179E-02  0.8406E-02  0.3027E+00  0.3027E+00
      1.091  0.1105E-01  0.1025E-01  0.3039E+00  0.3039E+00
      1.203  0.1354E-01  0.1499E-01  0.3055E+00  0.3056E+00
      1.314  0.8710E-02  0.7346E-02  0.3064E+00  0.3064E+00
      1.425  0.8908E-02  0.7150E-02  0.3074E+00  0.3072E+00
      1.537  0.1099E-01  0.1169E-01  0.3086E+00  0.3085E+00
      1.648  0.1047E-01  0.1140E-01  0.3098E+00  0.3097E+00
      1.760  0.1174E-01  0.1220E-01  0.3111E+00  0.3111E+00
      1.871  0.1069E-01  0.1050E-01  0.3123E+00  0.3123E+00
      1.983  0.1382E-01  0.1350E-01  0.3138E+00  0.3138E+00
      2.094  0.1912E-01  0.1920E-01  0.3160E+00  0.3159E+00
      2.205  0.1562E-01  0.1771E-01  0.3177E+00  0.3179E+00
      2.317  0.2146E-01  0.1998E-01  0.3201E+00  0.3201E+00
      2.428  0.1229E-01  0.1102E-01  0.3215E+00  0.3213E+00
      2.540  0.1178E-01  0.1208E-01  0.3228E+00  0.3227E+00
      2.651  0.1573E-01  0.1747E-01  0.3245E+00  0.3246E+00
      2.762  0.1667E-01  0.1436E-01  0.3264E+00  0.3262E+00
      2.874  0.1296E-01  0.1208E-01  0.3278E+00  0.3276E+00
      2.985  0.1383E-01  0.1604E-01  0.3294E+00  0.3294E+00
      3.097  0.2027E-01  0.1860E-01  0.3316E+00  0.3314E+00
      3.208  0.2442E-01  0.2552E-01  0.3344E+00  0.3343E+00
      3.320  0.2081E-01  0.2141E-01  0.3367E+00  0.3367E+00
      3.431  0.1408E-01  0.1431E-01  0.3382E+00  0.3383E+00
      3.542  0.1565E-01  0.1542E-01  0.3400E+00  0.3400E+00
      3.654  0.1995E-01  0.2000E-01  0.3422E+00  0.3422E+00
      3.765  0.2815E-01  0.2714E-01  0.3453E+00  0.3452E+00
      3.877  0.1569E-01  0.1480E-01  0.3471E+00  0.3469E+00
      3.988  0.5132E-02  0.8296E-02  0.3477E+00  0.3478E+00
      4.099  0.4452E-02  0.3092E-02  0.3482E+00  0.3482E+00
      4.211  0.7440E-02  0.6853E-02  0.3490E+00  0.3489E+00
      4.322  0.2104E-02  0.2538E-02  0.3492E+00  0.3492E+00
      4.434  0.9038E-03  0.1036E-02  0.3493E+00  0.3493E+00
      4.545  0.3986E-02  0.3833E-02  0.3498E+00  0.3497E+00
      4.657  0.2476E-02  0.2666E-02  0.3500E+00  0.3500E+00
      4.768  0.4532E-02  0.4053E-02  0.3506E+00  0.3505E+00
      4.879  0.2631E-02  0.3205E-02  0.3508E+00  0.3508E+00
      4.991  0.5953E-04  0.6196E-04  0.3509E+00  0.3509E+00
      5.102  0.2652E-02  0.2346E-02  0.3511E+00  0.3511E+00
      5.214  0.4174E-02  0.3932E-02  0.3516E+00  0.3516E+00
      5.325  0.4656E-02  0.4945E-02  0.3521E+00  0.3521E+00
      5.436  0.6430E-03  0.8336E-03  0.3522E+00  0.3522E+00
      5.548  0.1446E-02  0.1236E-02  0.3524E+00  0.3523E+00
      5.659  0.1417E-02  0.1499E-02  0.3525E+00  0.3525E+00
      5.771  0.4787E-02  0.4015E-02  0.3531E+00  0.3529E+00
      5.882  0.3890E-02  0.4584E-02  0.3535E+00  0.3535E+00
      5.994  0.5758E-02  0.4918E-02  0.3541E+00  0.3540E+00
      6.105  0.2596E-02  0.2332E-02  0.3544E+00  0.3543E+00
      6.216  0.4397E-02  0.3897E-02  0.3549E+00  0.3547E+00
      6.328  0.4962E-02  0.5505E-02  0.3555E+00  0.3553E+00
      6.439  0.9490E-02  0.8783E-02  0.3565E+00  0.3563E+00
      6.551  0.9401E-02  0.8237E-02  0.3576E+00  0.3572E+00
      6.662  0.4069E-02  0.6587E-02  0.3580E+00  0.3579E+00
      6.773  0.3791E-02  0.3950E-02  0.3584E+00  0.3584E+00
      6.885  0.5608E-02  0.4195E-02  0.3591E+00  0.3589E+00
      6.996  0.9656E-02  0.9146E-02  0.3601E+00  0.3599E+00
      7.108  0.5570E-02  0.7556E-02  0.3608E+00  0.3607E+00
      7.219  0.7071E-02  0.6060E-02  0.3616E+00  0.3614E+00
      7.331  0.8446E-02  0.7784E-02  0.3625E+00  0.3623E+00
      7.442  0.1025E-01  0.1014E-01  0.3636E+00  0.3634E+00
      7.553  0.9040E-02  0.8211E-02  0.3646E+00  0.3643E+00
      7.665  0.1073E-01  0.9787E-02  0.3658E+00  0.3654E+00
      7.776  0.1372E-01  0.1497E-01  0.3674E+00  0.3671E+00
      7.888  0.1162E-01  0.1121E-01  0.3687E+00  0.3683E+00
      7.999  0.9866E-02  0.1162E-01  0.3698E+00  0.3696E+00
      8.110  0.1060E-01  0.9209E-02  0.3709E+00  0.3706E+00
      8.222  0.1436E-01  0.1492E-01  0.3725E+00  0.3723E+00
      8.333  0.1326E-01  0.1212E-01  0.3740E+00  0.3736E+00
      8.445  0.1408E-01  0.1524E-01  0.3756E+00  0.3753E+00
      8.556  0.1352E-01  0.1259E-01  0.3771E+00  0.3767E+00
      8.667  0.1451E-01  0.1535E-01  0.3787E+00  0.3785E+00
      8.779  0.1921E-01  0.1791E-01  0.3809E+00  0.3804E+00
      8.890  0.2147E-01  0.2011E-01  0.3832E+00  0.3827E+00
      9.002  0.1788E-01  0.2027E-01  0.3852E+00  0.3849E+00
      9.113  0.1422E-01  0.1492E-01  0.3868E+00  0.3866E+00
      9.225  0.9721E-02  0.1009E-01  0.3879E+00  0.3877E+00
      9.336  0.1164E-02  0.2691E-02  0.3880E+00  0.3880E+00
      9.447  0.1887E-05  0.2137E-04  0.3880E+00  0.3880E+00
      9.559  0.7311E-12  0.1022E-09  0.3880E+00  0.3880E+00
      9.670  0.0000E+00  0.0000E+00  0.3880E+00  0.3880E+00
      9.782  0.0000E+00  0.0000E+00  0.3880E+00  0.3880E+00
      9.893  0.0000E+00  0.0000E+00  0.3880E+00  0.3880E+00
     10.004  0.0000E+00  0.0000E+00  0.3880E+00  0.3880E+00
     10.116  0.0000E+00  0.0000E+00  0.3880E+00  0.3880E+00
     10.227  0.0000E+00  0.0000E+00  0.3880E+00  0.3880E+00
     10.339  0.0000E+00  0.0000E+00  0.3880E+00  0.3880E+00
     10.450  0.0000E+00  0.0000E+00  0.3880E+00  0.3880E+00
     10.562  0.0000E+00  0.0000E+00  0.3880E+00  0.3880E+00
     10.673  0.0000E+00  0.0000E+00  0.3880E+00  0.3880E+00
     10.784  0.0000E+00  0.0000E+00  0.3880E+00  0.3880E+00
