 vasp.5.4.4.18Apr17-6-g9f103f2a35 (build Feb 25 2019 10:51:38) complex          
  
 executed on             LinuxIFC date 2022.11.22  10:09:02
 running on   40 total cores
 distrk:  each k-point on   40 cores,    1 groups
 distr:  one band on NCORES_PER_BAND=   1 cores,   40 groups


--------------------------------------------------------------------------------------------------------


 INCAR:
 POTCAR:    PAW_PBE Ir 06Sep2000                  
 POTCAR:    PAW_PBE O 08Apr2002                   
 POTCAR:    PAW_PBE Ir 06Sep2000                  
 POTCAR:    PAW_PBE O 08Apr2002                   

 ----------------------------------------------------------------------------- 
|                                                                             |
|           W    W    AA    RRRRR   N    N  II  N    N   GGGG   !!!           |
|           W    W   A  A   R    R  NN   N  II  NN   N  G    G  !!!           |
|           W    W  A    A  R    R  N N  N  II  N N  N  G       !!!           |
|           W WW W  AAAAAA  RRRRR   N  N N  II  N  N N  G  GGG   !            |
|           WW  WW  A    A  R   R   N   NN  II  N   NN  G    G                |
|           W    W  A    A  R    R  N    N  II  N    N   GGGG   !!!           |
|                                                                             |
|      For optimal performance we recommend to set                            |
|        NCORE= 4 - approx SQRT( number of cores)                             |
|      NCORE specifies how many cores store one orbital (NPAR=cpu/NCORE).     |
|      This setting can  greatly improve the performance of VASP for DFT.     |
|      The default,   NCORE=1            might be grossly inefficient         |
|      on modern multi-core architectures or massively parallel machines.     |
|      Do your own testing !!!!                                               |
|      Unfortunately you need to use the default for GW and RPA calculations. |
|      (for HF NCORE is supported but not extensively tested yet)             |
|                                                                             |
 ----------------------------------------------------------------------------- 

 POTCAR:    PAW_PBE Ir 06Sep2000                  
   VRHFIN =Ir: s1d8                                                             
   LEXCH  = PE                                                                  
   EATOM  =   560.1833 eV,   41.1723 Ry                                         
                                                                                
   TITEL  = PAW_PBE Ir 06Sep2000                                                
   LULTRA =        F    use ultrasoft PP ?                                      
   IUNSCR =        1    unscreen: 0-lin 1-nonlin 2-no                           
   RPACOR =    2.250    partial core radius                                     
   POMASS =  192.220; ZVAL   =    9.000    mass and valenz                      
   RCORE  =    2.600    outmost cutoff radius                                   
   RWIGS  =    2.690; RWIGS  =    1.423    wigner-seitz radius (au A)           
   ENMAX  =  210.864; ENMIN  =  158.148 eV                                      
   RCLOC  =    1.857    cutoff for local pot                                    
   LCOR   =        T    correct aug charges                                     
   LPAW   =        T    paw PP                                                  
   EAUG   =  318.962                                                            
   DEXC   =    0.000                                                            
   RMAX   =    2.667    core radius for proj-oper                               
   RAUG   =    1.300    factor for augmentation sphere                          
   RDEP   =    2.748    radius for radial grids                                 
   RDEPT  =    2.300    core radius for aug-charge                              
                                                                                
   Atomic configuration                                                         
   16 entries                                                                   
     n  l   j            E        occ.                                          
     1  0  0.50    -76100.0449   2.0000                                         
     2  0  0.50    -13308.1683   2.0000                                         
     2  1  1.50    -11558.0021   6.0000                                         
     3  0  0.50     -3110.7274   2.0000                                         
     3  1  1.50     -2599.2109   6.0000                                         
     3  2  2.50     -2037.1515  10.0000                                         
     4  0  0.50      -661.6001   2.0000                                         
     4  1  1.50      -493.8981   6.0000                                         
     4  2  2.50      -288.1909  10.0000                                         
     4  3  3.50       -59.5718  14.0000                                         
     5  0  0.50       -95.3879   2.0000                                         
     5  1  1.50       -52.2747   6.0000                                         
     5  2  2.50        -5.4180   8.0000                                         
     6  0  0.50        -5.5479   1.0000                                         
     6  1  1.50        -6.8029   0.0000                                         
     5  3  2.50        -1.3606   0.0000                                         
   Description                                                                  
     l       E           TYP  RCUT    TYP  RCUT                                 
     2     -5.4179967     23  2.600                                             
     2     -6.7785793     23  2.600                                             
     0     -5.5478636     23  2.600                                             
     0      2.2542272     23  2.600                                             
     1     -2.7211652     23  2.600                                             
     1     20.4087390     23  2.600                                             
  local pseudopotential read in
  partial core-charges read in
  partial kinetic energy density read in
  atomic valenz-charges read in
  non local Contribution for L=           2  read in
    real space projection operators read in
  non local Contribution for L=           2  read in
    real space projection operators read in
  non local Contribution for L=           0  read in
    real space projection operators read in
  non local Contribution for L=           0  read in
    real space projection operators read in
  non local Contribution for L=           1  read in
    real space projection operators read in
  non local Contribution for L=           1  read in
    real space projection operators read in
    PAW grid and wavefunctions read in
 
   number of l-projection  operators is LMAX  =           6
   number of lm-projection operators is LMMAX =          18
 
 POTCAR:    PAW_PBE O 08Apr2002                   
   VRHFIN =O: s2p4                                                              
   LEXCH  = PE                                                                  
   EATOM  =   432.3788 eV,   31.7789 Ry                                         
                                                                                
   TITEL  = PAW_PBE O 08Apr2002                                                 
   LULTRA =        F    use ultrasoft PP ?                                      
   IUNSCR =        1    unscreen: 0-lin 1-nonlin 2-no                           
   RPACOR =    1.200    partial core radius                                     
   POMASS =   16.000; ZVAL   =    6.000    mass and valenz                      
   RCORE  =    1.520    outmost cutoff radius                                   
   RWIGS  =    1.550; RWIGS  =    0.820    wigner-seitz radius (au A)           
   ENMAX  =  400.000; ENMIN  =  300.000 eV                                      
   ICORE  =        2    local potential                                         
   LCOR   =        T    correct aug charges                                     
   LPAW   =        T    paw PP                                                  
   EAUG   =  605.392                                                            
   DEXC   =    0.000                                                            
   RMAX   =    1.553    core radius for proj-oper                               
   RAUG   =    1.300    factor for augmentation sphere                          
   RDEP   =    1.550    radius for radial grids                                 
   RDEPT  =    1.329    core radius for aug-charge                              
                                                                                
   Atomic configuration                                                         
    4 entries                                                                   
     n  l   j            E        occ.                                          
     1  0  0.50      -514.6923   2.0000                                         
     2  0  0.50       -23.9615   2.0000                                         
     2  1  0.50        -9.0305   4.0000                                         
     3  2  1.50        -9.5241   0.0000                                         
   Description                                                                  
     l       E           TYP  RCUT    TYP  RCUT                                 
     0    -23.9615318     23  1.200                                             
     0     -9.5240782     23  1.200                                             
     1     -9.0304911     23  1.520                                             
     1      8.1634956     23  1.520                                             
     2     -9.5240782      7  1.500                                             
  local pseudopotential read in
  partial core-charges read in
  partial kinetic energy density read in
  kinetic energy density of atom read in
  atomic valenz-charges read in
  non local Contribution for L=           0  read in
    real space projection operators read in
  non local Contribution for L=           0  read in
    real space projection operators read in
  non local Contribution for L=           1  read in
    real space projection operators read in
  non local Contribution for L=           1  read in
    real space projection operators read in
    PAW grid and wavefunctions read in
 
   number of l-projection  operators is LMAX  =           4
   number of lm-projection operators is LMMAX =           8
 
 POTCAR:    PAW_PBE Ir 06Sep2000                  
   VRHFIN =Ir: s1d8                                                             
   LEXCH  = PE                                                                  
   EATOM  =   560.1833 eV,   41.1723 Ry                                         
                                                                                
   TITEL  = PAW_PBE Ir 06Sep2000                                                
   LULTRA =        F    use ultrasoft PP ?                                      
   IUNSCR =        1    unscreen: 0-lin 1-nonlin 2-no                           
   RPACOR =    2.250    partial core radius                                     
   POMASS =  192.220; ZVAL   =    9.000    mass and valenz                      
   RCORE  =    2.600    outmost cutoff radius                                   
   RWIGS  =    2.690; RWIGS  =    1.423    wigner-seitz radius (au A)           
   ENMAX  =  210.864; ENMIN  =  158.148 eV                                      
   RCLOC  =    1.857    cutoff for local pot                                    
   LCOR   =        T    correct aug charges                                     
   LPAW   =        T    paw PP                                                  
   EAUG   =  318.962                                                            
   DEXC   =    0.000                                                            
   RMAX   =    2.667    core radius for proj-oper                               
   RAUG   =    1.300    factor for augmentation sphere                          
   RDEP   =    2.748    radius for radial grids                                 
   RDEPT  =    2.300    core radius for aug-charge                              
                                                                                
   Atomic configuration                                                         
   16 entries                                                                   
     n  l   j            E        occ.                                          
     1  0  0.50    -76100.0449   2.0000                                         
     2  0  0.50    -13308.1683   2.0000                                         
     2  1  1.50    -11558.0021   6.0000                                         
     3  0  0.50     -3110.7274   2.0000                                         
     3  1  1.50     -2599.2109   6.0000                                         
     3  2  2.50     -2037.1515  10.0000                                         
     4  0  0.50      -661.6001   2.0000                                         
     4  1  1.50      -493.8981   6.0000                                         
     4  2  2.50      -288.1909  10.0000                                         
     4  3  3.50       -59.5718  14.0000                                         
     5  0  0.50       -95.3879   2.0000                                         
     5  1  1.50       -52.2747   6.0000                                         
     5  2  2.50        -5.4180   8.0000                                         
     6  0  0.50        -5.5479   1.0000                                         
     6  1  1.50        -6.8029   0.0000                                         
     5  3  2.50        -1.3606   0.0000                                         
   Description                                                                  
     l       E           TYP  RCUT    TYP  RCUT                                 
     2     -5.4179967     23  2.600                                             
     2     -6.7785793     23  2.600                                             
     0     -5.5478636     23  2.600                                             
     0      2.2542272     23  2.600                                             
     1     -2.7211652     23  2.600                                             
     1     20.4087390     23  2.600                                             
  local pseudopotential read in
  partial core-charges read in
  partial kinetic energy density read in
  atomic valenz-charges read in
  non local Contribution for L=           2  read in
    real space projection operators read in
  non local Contribution for L=           2  read in
    real space projection operators read in
  non local Contribution for L=           0  read in
    real space projection operators read in
  non local Contribution for L=           0  read in
    real space projection operators read in
  non local Contribution for L=           1  read in
    real space projection operators read in
  non local Contribution for L=           1  read in
    real space projection operators read in
    PAW grid and wavefunctions read in
 
   number of l-projection  operators is LMAX  =           6
   number of lm-projection operators is LMMAX =          18
 
 POTCAR:    PAW_PBE O 08Apr2002                   
   VRHFIN =O: s2p4                                                              
   LEXCH  = PE                                                                  
   EATOM  =   432.3788 eV,   31.7789 Ry                                         
                                                                                
   TITEL  = PAW_PBE O 08Apr2002                                                 
   LULTRA =        F    use ultrasoft PP ?                                      
   IUNSCR =        1    unscreen: 0-lin 1-nonlin 2-no                           
   RPACOR =    1.200    partial core radius                                     
   POMASS =   16.000; ZVAL   =    6.000    mass and valenz                      
   RCORE  =    1.520    outmost cutoff radius                                   
   RWIGS  =    1.550; RWIGS  =    0.820    wigner-seitz radius (au A)           
   ENMAX  =  400.000; ENMIN  =  300.000 eV                                      
   ICORE  =        2    local potential                                         
   LCOR   =        T    correct aug charges                                     
   LPAW   =        T    paw PP                                                  
   EAUG   =  605.392                                                            
   DEXC   =    0.000                                                            
   RMAX   =    1.553    core radius for proj-oper                               
   RAUG   =    1.300    factor for augmentation sphere                          
   RDEP   =    1.550    radius for radial grids                                 
   RDEPT  =    1.329    core radius for aug-charge                              
                                                                                
   Atomic configuration                                                         
    4 entries                                                                   
     n  l   j            E        occ.                                          
     1  0  0.50      -514.6923   2.0000                                         
     2  0  0.50       -23.9615   2.0000                                         
     2  1  0.50        -9.0305   4.0000                                         
     3  2  1.50        -9.5241   0.0000                                         
   Description                                                                  
     l       E           TYP  RCUT    TYP  RCUT                                 
     0    -23.9615318     23  1.200                                             
     0     -9.5240782     23  1.200                                             
     1     -9.0304911     23  1.520                                             
     1      8.1634956     23  1.520                                             
     2     -9.5240782      7  1.500                                             
  local pseudopotential read in
  partial core-charges read in
  partial kinetic energy density read in
  kinetic energy density of atom read in
  atomic valenz-charges read in
  non local Contribution for L=           0  read in
    real space projection operators read in
  non local Contribution for L=           0  read in
    real space projection operators read in
  non local Contribution for L=           1  read in
    real space projection operators read in
  non local Contribution for L=           1  read in
    real space projection operators read in
    PAW grid and wavefunctions read in
 
   number of l-projection  operators is LMAX  =           4
   number of lm-projection operators is LMMAX =           8
 
 Optimization of the real space projectors (new method)

 maximal supplied QI-value         = 14.36
 optimisation between [QCUT,QGAM] = [ 11.35, 22.84] = [ 36.05,146.02] Ry 
 Optimized for a Real-space Cutoff    1.52 Angstroem

   l    n(q)    QCUT    max X(q) W(low)/X(q) W(high)/X(q)  e(spline) 
   2      9    11.346   134.116    0.47E-03    0.13E-03    0.92E-06
   2      9    11.346   130.192    0.47E-03    0.13E-03    0.92E-06
   0     10    11.346    60.310    0.74E-04    0.13E-03    0.69E-06
   0     10    11.346    39.218    0.68E-04    0.12E-03    0.65E-06
   1     10    11.346    18.439    0.15E-03    0.34E-04    0.20E-06
   1     10    11.346    12.760    0.12E-03    0.31E-04    0.16E-06
 Optimization of the real space projectors (new method)

 maximal supplied QI-value         = 24.76
 optimisation between [QCUT,QGAM] = [ 11.39, 22.77] = [ 36.31,145.25] Ry 
 Optimized for a Real-space Cutoff    1.00 Angstroem

   l    n(q)    QCUT    max X(q) W(low)/X(q) W(high)/X(q)  e(spline) 
   0      7    11.387    20.381    0.39E-03    0.13E-02    0.15E-06
   0      7    11.387    15.268    0.42E-03    0.14E-02    0.17E-06
   1      6    11.387     5.964    0.41E-03    0.11E-02    0.17E-06
   1      6    11.387     5.382    0.39E-03    0.87E-03    0.15E-06
 Optimization of the real space projectors (new method)

 maximal supplied QI-value         = 14.36
 optimisation between [QCUT,QGAM] = [ 11.35, 22.84] = [ 36.05,146.02] Ry 
 Optimized for a Real-space Cutoff    1.52 Angstroem

   l    n(q)    QCUT    max X(q) W(low)/X(q) W(high)/X(q)  e(spline) 
   2      9    11.346   134.116    0.47E-03    0.13E-03    0.92E-06
   2      9    11.346   130.192    0.47E-03    0.13E-03    0.92E-06
   0     10    11.346    60.310    0.74E-04    0.13E-03    0.69E-06
   0     10    11.346    39.218    0.68E-04    0.12E-03    0.65E-06
   1     10    11.346    18.439    0.15E-03    0.34E-04    0.20E-06
   1     10    11.346    12.760    0.12E-03    0.31E-04    0.16E-06
 Optimization of the real space projectors (new method)

 maximal supplied QI-value         = 24.76
 optimisation between [QCUT,QGAM] = [ 11.39, 22.77] = [ 36.31,145.25] Ry 
 Optimized for a Real-space Cutoff    1.00 Angstroem

   l    n(q)    QCUT    max X(q) W(low)/X(q) W(high)/X(q)  e(spline) 
   0      7    11.387    20.381    0.39E-03    0.13E-02    0.15E-06
   0      7    11.387    15.268    0.42E-03    0.14E-02    0.17E-06
   1      6    11.387     5.964    0.41E-03    0.11E-02    0.17E-06
   1      6    11.387     5.382    0.39E-03    0.87E-03    0.15E-06

 ----------------------------------------------------------------------------- 
|                                                                             |
|  ADVICE TO THIS USER RUNNING 'VASP/VAMP'   (HEAR YOUR MASTER'S VOICE ...):  |
|                                                                             |
|      You enforced a specific xc-type in the INCAR file,                     |
|      a different type was found on the POTCAR file                          |
|          I HOPE YOU KNOW, WHAT YOU ARE  DOING                               |
|                                                                             |
 ----------------------------------------------------------------------------- 

  PAW_PBE Ir 06Sep2000                  :
 energy of atom  1       EATOM= -560.1833
 kinetic energy error for atom=    0.0018 (will be added to EATOM!!)
  PAW_PBE O 08Apr2002                   :
 energy of atom  2       EATOM= -432.3788
 kinetic energy error for atom=    0.0224 (will be added to EATOM!!)
  PAW_PBE Ir 06Sep2000                  :
 energy of atom  3       EATOM= -560.1833
 kinetic energy error for atom=    0.0018 (will be added to EATOM!!)
  PAW_PBE O 08Apr2002                   :
 energy of atom  4       EATOM= -432.3788
 kinetic energy error for atom=    0.0224 (will be added to EATOM!!)
 
 
 POSCAR: Ir  O Ir  O                             
  positions in cartesian coordinates
  No initial velocities read in
 exchange correlation table for  LEXCH =        9
   RHO(1)=    0.500       N(1)  =     2000
   RHO(2)=  100.500       N(2)  =     4000

 VTST: version 3.2, (02/03/18)

 CHAIN: initializing optimizer
 
 OPT: Using VASP Dynamics algorithm
 CHAIN: Read ICHAIN            0
 
 POSCAR: Ir  O Ir  O                             
  positions in cartesian coordinates
  No initial velocities read in
 


--------------------------------------------------------------------------------------------------------


 ion  position               nearest neighbor table
   1  0.125  0.500  0.188-  21 2.00  29 2.00  17 2.02  25 2.02  26 2.02  18 2.02   2 3.20  52 3.20

   2  0.375  0.500  0.188-  22 2.00  30 2.00  26 2.02  18 2.02  67 2.02  75 2.02   1 3.20  51 3.20

   3  0.125  0.000  0.062-  23 2.00  31 2.00  19 2.02  27 2.02  28 2.02  20 2.02   4 3.20  54 3.20

   4  0.375  0.000  0.062-  24 2.00  32 2.00  28 2.02  20 2.02  69 2.02  77 2.02   3 3.20  53 3.20

   5  0.000  0.500  0.062-  17 2.00  23 2.02  31 2.02  74 2.02  82 2.02   6 3.20  56 3.20
   6  0.250  0.500  0.062-  18 2.00  23 2.02  24 2.02  31 2.02  32 2.02   5 3.20  55 3.20
   7  0.000  0.000  0.188-  27 2.00  35 2.00  29 2.02  21 2.02  72 2.02  80 2.02   8 3.20  58 3.20

   8  0.250  0.000  0.188-  28 2.00  36 2.00  21 2.02  29 2.02  30 2.02  22 2.02   7 3.20  57 3.20

   9  0.125  0.500  0.438-  41 1.99  42 1.99  37 2.00  45 2.00  33 2.03  34 2.04  10 3.21  60 3.21

  10  0.375  0.500  0.439-  42 1.99  91 1.99  46 2.00  38 2.00  83 2.04  34 2.04  59 3.20   9 3.21

  11  0.125  0.000  0.313-  39 1.99  47 1.99  35 2.03  36 2.03  43 2.04  44 2.04  12 3.19  62 3.19

  12  0.374  0.000  0.313-  40 1.99  48 1.99  93 1.99  36 2.02  44 2.03  85 2.03  11 3.19  61 3.21

  13  0.000  0.500  0.313-  33 1.99  25 2.01  98 2.02  90 2.02  47 2.02  39 2.02  14 3.20  64 3.20

  14  0.250  0.500  0.313-  34 1.99  26 2.01  48 2.03  40 2.03  47 2.03  39 2.03  13 3.20  63 3.20

  15  0.998  0.000  0.442-  50 1.80  88 2.04  96 2.04  45 2.04  37 2.04  43 2.09  16 3.24  66 3.26

  16  0.251  0.000  0.443-  49 1.80  46 2.04  38 2.04  37 2.04  45 2.04  44 2.09  15 3.24  65 3.26

  17  0.000  0.500  0.140-   5 2.00   1 2.02  52 2.02
  18  0.250  0.500  0.140-   6 2.00   2 2.02   1 2.02
  19  0.000  0.000  0.015-   3 2.02  54 2.02
  20  0.250  0.000  0.015-   3 2.02   4 2.02
  21  0.125  0.808  0.188-   1 2.00   7 2.02   8 2.02
  22  0.375  0.808  0.188-   2 2.00   8 2.02  57 2.02
  23  0.125  0.308  0.062-   3 2.00   5 2.02   6 2.02
  24  0.375  0.308  0.062-   4 2.00   6 2.02  55 2.02
  25  0.000  0.500  0.235-  13 2.01   1 2.02  52 2.02
  26  0.250  0.500  0.235-  14 2.01   2 2.02   1 2.02
  27  0.000  0.000  0.110-   7 2.00   3 2.02  54 2.02
  28  0.250  0.000  0.110-   8 2.00   4 2.02   3 2.02
  29  0.125  0.192  0.188-   1 2.00   7 2.02   8 2.02
  30  0.375  0.192  0.188-   2 2.00   8 2.02  57 2.02
  31  0.125  0.692  0.062-   3 2.00   5 2.02   6 2.02
  32  0.375  0.692  0.062-   4 2.00   6 2.02  55 2.02
  33  1.000  0.500  0.390-  13 1.99   9 2.03  60 2.04
  34  0.250  0.500  0.390-  14 1.99   9 2.04  10 2.04
  35  0.001  0.000  0.265-   7 2.00  62 2.02  11 2.03
  36  0.249  0.000  0.265-   8 2.00  12 2.02  11 2.03
  37  0.125  0.809  0.436-   9 2.00  15 2.04  16 2.04
  38  0.378  0.809  0.441-  10 2.00  16 2.04  65 2.05
  39  0.125  0.308  0.313-  11 1.99  13 2.02  14 2.03
  40  0.375  0.308  0.312-  12 1.99  14 2.03  63 2.03
  41  0.000  0.500  0.484-  60 1.99   9 1.99
  42  0.250  0.500  0.484-  10 1.99   9 1.99
  43  0.999  0.000  0.362-  62 2.03  11 2.04  15 2.09
  44  0.251  0.000  0.362-  12 2.03  11 2.04  16 2.09
  45  0.125  0.191  0.436-   9 2.00  15 2.04  16 2.04
  46  0.378  0.191  0.441-  10 2.00  16 2.04  65 2.05
  47  0.125  0.692  0.313-  11 1.99  13 2.02  14 2.03
  48  0.375  0.692  0.312-  12 1.99  14 2.03  63 2.03
  49  0.247  0.000  0.512-  16 1.80
  50  0.003  0.000  0.512-  15 1.80
  51  0.625  0.500  0.188-  71 2.00  79 2.00  67 2.02  75 2.02  76 2.02  68 2.02   2 3.20  52 3.20

  52  0.875  0.500  0.188-  72 2.00  80 2.00  68 2.02  17 2.02  76 2.02  25 2.02   1 3.20  51 3.20

  53  0.625  0.000  0.062-  73 2.00  81 2.00  69 2.02  77 2.02  78 2.02  70 2.02   4 3.20  54 3.20

  54  0.875  0.000  0.062-  74 2.00  82 2.00  70 2.02  19 2.02  78 2.02  27 2.02   3 3.20  53 3.20

  55  0.500  0.500  0.062-  67 2.00  32 2.02  24 2.02  73 2.02  81 2.02  56 3.20   6 3.20
  56  0.750  0.500  0.062-  68 2.00  73 2.02  74 2.02  81 2.02  82 2.02  55 3.20   5 3.20
  57  0.500  0.000  0.188-  77 2.00  85 2.00  71 2.02  22 2.02  79 2.02  30 2.02   8 3.20  58 3.20

  58  0.750  0.000  0.188-  78 2.00  86 2.00  71 2.02  79 2.02  80 2.02  72 2.02   7 3.20  57 3.20

  59  0.625  0.500  0.436-  87 1.98  95 1.98  92 1.98  91 1.98  83 2.03  84 2.03  10 3.20  60 3.20

  60  0.875  0.500  0.439-  41 1.99  92 1.99  88 2.00  96 2.00  84 2.04  33 2.04  59 3.20   9 3.21

  61  0.625  0.000  0.313-  89 1.99  97 1.99  85 2.03  86 2.03  94 2.05  93 2.05  12 3.21  62 3.21

  62  0.876  0.000  0.313-  90 1.99  98 1.99  94 2.00  35 2.02  43 2.03  86 2.03  11 3.19  61 3.21

  63  0.500  0.500  0.313-  83 1.97  75 2.00  48 2.03  40 2.03  97 2.03  89 2.03  14 3.20  64 3.21

  64  0.750  0.500  0.313-  84 1.98  76 2.00  98 2.03  90 2.03  97 2.03  89 2.03  13 3.20  63 3.21

  65  0.506  0.000  0.440- 100 1.90  95 2.00  87 2.00  46 2.05  38 2.05  93 2.06  66 3.06  16 3.26

  66  0.744  0.000  0.440-  99 1.90  95 2.00  87 2.00  96 2.05  88 2.05  94 2.06  65 3.06  15 3.26

  67  0.500  0.500  0.140-  55 2.00  51 2.02   2 2.02
  68  0.750  0.500  0.140-  56 2.00  52 2.02  51 2.02
  69  0.500  0.000  0.015-   4 2.02  53 2.02
  70  0.750  0.000  0.015-  53 2.02  54 2.02
  71  0.625  0.808  0.188-  51 2.00  57 2.02  58 2.02
  72  0.875  0.808  0.188-  52 2.00   7 2.02  58 2.02
  73  0.625  0.308  0.062-  53 2.00  55 2.02  56 2.02
  74  0.875  0.308  0.062-  54 2.00   5 2.02  56 2.02
  75  0.500  0.500  0.235-  63 2.00  51 2.02   2 2.02
  76  0.750  0.500  0.235-  64 2.00  52 2.02  51 2.02
  77  0.500  0.000  0.110-  57 2.00  53 2.02   4 2.02
  78  0.750  0.000  0.110-  58 2.00  54 2.02  53 2.02
  79  0.625  0.192  0.188-  51 2.00  57 2.02  58 2.02
  80  0.875  0.192  0.188-  52 2.00   7 2.02  58 2.02
  81  0.625  0.692  0.062-  53 2.00  55 2.02  56 2.02
  82  0.875  0.692  0.062-  54 2.00   5 2.02  56 2.02
  83  0.498  0.500  0.389-  63 1.97  59 2.03  10 2.04
  84  0.752  0.500  0.389-  64 1.98  59 2.03  60 2.04
  85  0.500  0.000  0.265-  57 2.00  61 2.03  12 2.03
  86  0.750  0.000  0.265-  58 2.00  61 2.03  62 2.03
  87  0.625  0.805  0.428-  59 1.98  66 2.00  65 2.00
  88  0.872  0.809  0.441-  60 2.00  15 2.04  66 2.05
  89  0.625  0.308  0.312-  61 1.99  63 2.03  64 2.03
  90  0.876  0.308  0.312-  62 1.99  13 2.02  64 2.03
  91  0.502  0.500  0.483-  59 1.98  10 1.99
  92  0.747  0.500  0.483-  59 1.98  60 1.99
  93  0.496  0.000  0.361-  12 1.99  61 2.05  65 2.06
  94  0.753  0.000  0.360-  62 2.00  61 2.05  66 2.06
  95  0.625  0.195  0.428-  59 1.98  66 2.00  65 2.00
  96  0.872  0.191  0.441-  60 2.00  15 2.04  66 2.05
  97  0.625  0.692  0.312-  61 1.99  63 2.03  64 2.03
  98  0.876  0.692  0.312-  62 1.99  13 2.02  64 2.03
  99  0.691  0.000  0.508- 100 1.70  66 1.90
 100  0.559  0.000  0.509-  99 1.70  65 1.90
 
  LATTYP: Found a simple orthorhombic cell.
 ALAT       =     6.4702430000
 B/A-ratio  =     1.9796060210
 C/A-ratio  =     4.0000000000
  
  Lattice vectors:
  
 A1 = (   0.0000000000,  -6.4702430000,   0.0000000000)
 A2 = ( -12.8085320000,   0.0000000000,   0.0000000000)
 A3 = (   0.0000000000,   0.0000000000, -25.8809720000)


Analysis of symmetry for initial positions (statically):
=====================================================================
 Subroutine PRICEL returns:
 Original cell was already a primitive cell.
 

 Routine SETGRP: Setting up the symmetry group for a 
 simple orthorhombic supercell.


 Subroutine GETGRP returns: Found  2 space group operations
 (whereof  2 operations were pure point group operations)
 out of a pool of  8 trial point group operations.


The static configuration has the point symmetry C_1h.


Analysis of symmetry for dynamics (positions and initial velocities):
=====================================================================
 Subroutine PRICEL returns:
 Original cell was already a primitive cell.
 

 Routine SETGRP: Setting up the symmetry group for a 
 simple orthorhombic supercell.


 Subroutine GETGRP returns: Found  2 space group operations
 (whereof  2 operations were pure point group operations)
 out of a pool of  8 trial point group operations.


The dynamic configuration has the point symmetry C_1h.


Analysis of constrained symmetry for selective dynamics:
=====================================================================
 Subroutine PRICEL returns:
 Original cell was already a primitive cell.
 

 Routine SETGRP: Setting up the symmetry group for a 
 simple orthorhombic supercell.


 Subroutine GETGRP returns: Found  2 space group operations
 (whereof  2 operations were pure point group operations)
 out of a pool of  8 trial point group operations.


The constrained configuration has the point symmetry C_1h.


Analysis of structural, dynamic, and magnetic symmetry:
=====================================================================
 Subroutine PRICEL returns:
 Original cell was already a primitive cell.
 

 Routine SETGRP: Setting up the symmetry group for a 
 simple orthorhombic supercell.


 Subroutine GETGRP returns: Found  2 space group operations
 (whereof  2 operations were pure point group operations)
 out of a pool of  8 trial point group operations.


The magnetic configuration has the point symmetry C_1h.


 Subroutine INISYM returns: Found  2 space group operations
 (whereof  2 operations are pure point group operations),
 and found     1 'primitive' translations

 
 
 KPOINTS: Automatic mesh                          

Automatic generation of k-mesh.
Space group operators:
 irot       det(A)        alpha          n_x          n_y          n_z        tau_x        tau_y        tau_z
    1     1.000000     0.000001     1.000000     0.000000     0.000000     0.000000     0.000000     0.000000
    2    -1.000000   180.000000     0.000000     1.000000     0.000000     0.000000     0.000000     0.000000
 
 Subroutine IBZKPT returns following result:
 ===========================================
 
 Found      4 irreducible k-points:
 
 Following reciprocal coordinates:
            Coordinates               Weight
  0.000000  0.000000  0.000000      1.000000
  0.333333  0.000000  0.000000      2.000000
  0.000000  0.333333  0.000000      2.000000
  0.333333  0.333333  0.000000      4.000000
 
 Following cartesian coordinates:
            Coordinates               Weight
  0.000000  0.000000  0.000000      1.000000
  0.026024  0.000000  0.000000      2.000000
  0.000000  0.051518  0.000000      2.000000
  0.026024  0.051518  0.000000      4.000000
 
 
 Subroutine IBZKPT_HF returns following result:
 ==============================================
 
 Found      9 k-points in 1st BZ
 the following      9 k-points will be used (e.g. in the exchange kernel)
 Following reciprocal coordinates:   # in IRBZ
  0.000000  0.000000  0.000000    0.11111111   1 t-inv F
  0.333333  0.000000  0.000000    0.11111111   2 t-inv F
  0.000000  0.333333  0.000000    0.11111111   3 t-inv F
  0.333333  0.333333  0.000000    0.11111111   4 t-inv F
  0.000000 -0.333333  0.000000    0.11111111   3 t-inv F
  0.333333 -0.333333  0.000000    0.11111111   4 t-inv F
 -0.333333  0.000000  0.000000    0.11111111   2 t-inv T
 -0.333333 -0.333333  0.000000    0.11111111   4 t-inv T
 -0.333333  0.333333  0.000000    0.11111111   4 t-inv T


--------------------------------------------------------------------------------------------------------




 Dimension of arrays:
   k-points           NKPTS =      4   k-points in BZ     NKDIM =      4   number of bands    NBANDS=    480
   number of dos      NEDOS =    301   number of ions     NIONS =    100
   non local maximal  LDIM  =      6   non local SUM 2l+1 LMDIM =     18
   total plane-waves  NPLWV = 362880
   max r-space proj   IRMAX =   2532   max aug-charges    IRDMAX=  12432
   dimension x,y,z NGX =    70 NGY =   36 NGZ =  144
   dimension x,y,z NGXF=   140 NGYF=   72 NGZF=  288
   support grid    NGXF=   140 NGYF=   72 NGZF=  288
   ions per type =              16  34  16  34
   NGX,Y,Z   is equivalent  to a cutoff of   9.09,  9.25,  9.25 a.u.
   NGXF,Y,Z  is equivalent  to a cutoff of  18.17, 18.50, 18.50 a.u.

 SYSTEM =  unknown system                          
 POSCAR =  Ir  O Ir  O                             

 Startparameter for this run:
   NWRITE =      2    write-flag & timer
   PREC   = normal    normal or accurate (medium, high low for compatibility)
   ISTART =      0    job   : 0-new  1-cont  2-samecut
   ICHARG =      2    charge: 1-file 2-atom 10-const
   ISPIN  =      2    spin polarized calculation?
   LNONCOLLINEAR =      F non collinear calculations
   LSORBIT =      F    spin-orbit coupling
   INIWAV =      1    electr: 0-lowe 1-rand  2-diag
   LASPH  =      F    aspherical Exc in radial PAW
   METAGGA=      F    non-selfconsistent MetaGGA calc.

 Electronic Relaxation 1
   ENCUT  =  500.0 eV  36.75 Ry    6.06 a.u.  23.35 11.80 47.19*2*pi/ulx,y,z
   ENINI  =  500.0     initial cutoff
   ENAUG  =  605.4 eV  augmentation charge cutoff
   NELM   =     60;   NELMIN=  4; NELMDL=  0     # of ELM steps 
   EDIFF  = 0.1E-05   stopping-criterion for ELM
   LREAL  =      T    real-space projection
   NLSPLINE    = F    spline interpolate recip. space projectors
   LCOMPAT=      F    compatible to vasp.4.4
   GGA_COMPAT  = T    GGA compatible to vasp.4.4-vasp.4.6
   LMAXPAW     = -100 max onsite density
   LMAXMIX     =    2 max onsite mixed and CHGCAR
   VOSKOWN=      0    Vosko Wilk Nusair interpolation
   ROPT   =   -0.00050  -0.00050  -0.00050  -0.00050
 Ionic relaxation
   EDIFFG = -.5E-01   stopping-criterion for IOM
   NSW    =   1237    number of steps for IOM
   NBLOCK =      1;   KBLOCK =   1237    inner block; outer block 
   IBRION =      5    ionic relax: 0-MD 1-quasi-New 2-CG
   NFREE  =      2    steps in history (QN), initial steepest desc. (CG)
   ISIF   =      2    stress and relaxation
   IWAVPR =     11    prediction:  0-non 1-charg 2-wave 3-comb
   ISYM   =      2    0-nonsym 1-usesym 2-fastsym
   LCORR  =      T    Harris-Foulkes like correction to forces

   POTIM  = 0.5000    time-step for ionic-motion
   TEIN   =    0.0    initial temperature
   TEBEG  =    0.0;   TEEND  =   0.0 temperature during run
   SMASS  =  -3.00    Nose mass-parameter (am)
   estimated Nose-frequenzy (Omega)   =  0.10E-29 period in steps =****** mass=  -0.375E-26a.u.
   SCALEE = 1.0000    scale energy and forces
   NPACO  =    256;   APACO  = 16.0  distance and # of slots for P.C.
   PSTRESS=    0.0 pullay stress

  Mass of Ions in am
   POMASS = 192.22 16.00192.22 16.00
  Ionic Valenz
   ZVAL   =   9.00  6.00  9.00  6.00
  Atomic Wigner-Seitz radii
   RWIGS  =  -1.00 -1.00 -1.00 -1.00
  virtual crystal weights 
   VCA    =   1.00  1.00  1.00  1.00
   NELECT =     696.0000    total number of electrons
   NUPDOWN=      -1.0000    fix difference up-down

 DOS related values:
   EMIN   =  10.00;   EMAX   =-10.00  energy-range for DOS
   EFERMI =   0.00
   ISMEAR =     0;   SIGMA  =   0.05  broadening in eV -4-tet -1-fermi 0-gaus

 Electronic relaxation 2 (details)
   IALGO  =     68    algorithm
   LDIAG  =      T    sub-space diagonalisation (order eigenvalues)
   LSUBROT=      F    optimize rotation matrix (better conditioning)
   TURBO    =      0    0=normal 1=particle mesh
   IRESTART =      0    0=no restart 2=restart with 2 vectors
   NREBOOT  =      0    no. of reboots
   NMIN     =      0    reboot dimension
   EREF     =   0.00    reference energy to select bands
   IMIX   =      4    mixing-type and parameters
     AMIX     =   0.40;   BMIX     =  1.00
     AMIX_MAG =   1.60;   BMIX_MAG =  1.00
     AMIN     =   0.10
     WC   =   100.;   INIMIX=   1;  MIXPRE=   1;  MAXMIX=  60

 Intra band minimization:
   WEIMIN = 0.0010     energy-eigenvalue tresh-hold
   EBREAK =  0.52E-09  absolut break condition
   DEPER  =   0.30     relativ break condition  

   TIME   =   0.40     timestep for ELM

  volume/ion in A,a.u.               =      21.45       144.74
  Fermi-wavevector in a.u.,A,eV,Ry     =   1.124979  2.125902 17.219229  1.265578
  Thomas-Fermi vector in A             =   2.261654
 
 Write flags
   LWAVE        =      F    write WAVECAR
   LDOWNSAMPLE  =      F    k-point downsampling of WAVECAR
   LCHARG       =      F    write CHGCAR
   LVTOT        =      F    write LOCPOT, total local potential
   LVHAR        =      T    write LOCPOT, Hartree potential only
   LELF         =      F    write electronic localiz. function (ELF)
   LORBIT       =      0    0 simple, 1 ext, 2 COOP (PROOUT), +10 PAW based schemes


 Dipole corrections
   LMONO  =      F    monopole corrections only (constant potential shift)
   LDIPOL =      F    correct potential (dipole corrections)
   IDIPOL =      0    1-x, 2-y, 3-z, 4-all directions 
   EPSILON=  1.0000000 bulk dielectric constant

 Exchange correlation treatment:
   GGA     =    RP    GGA type
   LEXCH   =     9    internal setting for exchange type
   VOSKOWN=      0    Vosko Wilk Nusair interpolation
   LHFCALC =     F    Hartree Fock is set to
   LHFONE  =     F    Hartree Fock one center treatment
   AEXX    =    0.0000 exact exchange contribution

 Linear response parameters
   LEPSILON=     F    determine dielectric tensor
   LRPA    =     F    only Hartree local field effects (RPA)
   LNABLA  =     F    use nabla operator in PAW spheres
   LVEL    =     F    velocity operator in full k-point grid
   LINTERFAST=   F  fast interpolation
   KINTER  =     0    interpolate to denser k-point grid
   CSHIFT  =0.1000    complex shift for real part using Kramers Kronig
   OMEGAMAX=  -1.0    maximum frequency
   DEG_THRESHOLD= 0.2000000E-02 threshold for treating states as degnerate
   RTIME   =   -0.100 relaxation time in fs
  (WPLASMAI=    0.000 imaginary part of plasma frequency in eV, 0.658/RTIME)
   DFIELD  = 0.0000000 0.0000000 0.0000000 field for delta impulse in time
 
 Orbital magnetization related:
   ORBITALMAG=     F  switch on orbital magnetization
   LCHIMAG   =     F  perturbation theory with respect to B field
   DQ        =  0.001000  dq finite difference perturbation B field
   LLRAUG    =     F  two centre corrections for induced B field



--------------------------------------------------------------------------------------------------------


 finite differences
   using selective dynamics as specified on POSCAR
   WARNING: If single coordinates had been selected the selection of coordinates
            is made according to the corresponding   d i r e c t   coordinates!
            Don't support selection of single cartesian coordinates -- sorry ...
  !
 charge density and potential will be updated during run
 spin polarized calculation
 RMM-DIIS sequential band-by-band and
  variant of blocked Davidson during initial phase
 perform sub-space diagonalisation
    before iterative eigenvector-optimisation
 modified Broyden-mixing scheme, WC =      100.0
 initial mixing is a Kerker type mixing with AMIX =  0.4000 and BMIX =      1.0000
 Hartree-type preconditioning will be used
 using additional bands          132
 real space projection scheme for non local part
 use partial core corrections
 calculate Harris-corrections to forces 
   (improved forces if not selfconsistent)
 use gradient corrections 
 use of overlap-Matrix (Vanderbilt PP)
 Gauss-broadening in eV      SIGMA  =   0.05


--------------------------------------------------------------------------------------------------------


  energy-cutoff  :      500.00
  volume of cell :     2144.87
      direct lattice vectors                 reciprocal lattice vectors
    12.808532000  0.000000000  0.000000000     0.078072959  0.000000000  0.000000000
     0.000000000  6.470243000  0.000000000     0.000000000  0.154553701  0.000000000
     0.000000000  0.000000000 25.880972000     0.000000000  0.000000000  0.038638425

  length of vectors
    12.808532000  6.470243000 25.880972000     0.078072959  0.154553701  0.038638425


 
 k-points in units of 2pi/SCALE and weight: Automatic mesh                          
   0.00000000  0.00000000  0.00000000       0.111
   0.02602432  0.00000000  0.00000000       0.222
   0.00000000  0.05151790  0.00000000       0.222
   0.02602432  0.05151790  0.00000000       0.444
 
 k-points in reciprocal lattice and weights: Automatic mesh                          
   0.00000000  0.00000000  0.00000000       0.111
   0.33333333  0.00000000  0.00000000       0.222
   0.00000000  0.33333333  0.00000000       0.222
   0.33333333  0.33333333  0.00000000       0.444
 
 position of ions in fractional coordinates (direct lattice) 
   0.12500000  0.50000000  0.18750000
   0.37500000  0.50000000  0.18750000
   0.12500000  0.00000000  0.06250000
   0.37500000  0.00000000  0.06250000
   0.00000000  0.50000000  0.06250000
   0.25000000  0.50000000  0.06250000
   0.00000000  0.00000000  0.18750000
   0.25000000  0.00000000  0.18750000
   0.12495358  0.50000000  0.43822722
   0.37528301  0.50000000  0.43889027
   0.12491797  0.00000000  0.31333534
   0.37407832  0.00000000  0.31261231
   0.00013754  0.50000000  0.31312950
   0.24978997  0.50000000  0.31310802
   0.99834185  0.00000000  0.44246842
   0.25116410  0.00000000  0.44250427
   0.00000000  0.50000000  0.13961000
   0.25000000  0.50000000  0.13961000
   0.00000000  0.00000000  0.01461000
   0.25000000  0.00000000  0.01461000
   0.12500000  0.80844000  0.18750000
   0.37500000  0.80844000  0.18750000
   0.12500000  0.30844000  0.06250000
   0.37500000  0.30844000  0.06250000
   0.00000000  0.50000000  0.23539000
   0.25000000  0.50000000  0.23539000
   0.00000000  0.00000000  0.11039000
   0.25000000  0.00000000  0.11039000
   0.12500000  0.19156000  0.18750000
   0.37500000  0.19156000  0.18750000
   0.12500000  0.69156000  0.06250000
   0.37500000  0.69156000  0.06250000
   0.99960605  0.50000000  0.38997101
   0.25042755  0.50000000  0.38987699
   0.00066420  0.00000000  0.26483556
   0.24920384  0.00000000  0.26481849
   0.12472199  0.80943992  0.43627761
   0.37797719  0.80914829  0.44052674
   0.12481955  0.30761370  0.31301001
   0.37461501  0.30768234  0.31232163
   0.00019828  0.50000000  0.48403086
   0.24976880  0.50000000  0.48412231
   0.99919297  0.00000000  0.36157008
   0.25059014  0.00000000  0.36161674
   0.12472199  0.19056008  0.43627761
   0.37797719  0.19085171  0.44052674
   0.12481955  0.69238630  0.31301001
   0.37461501  0.69231766  0.31232163
   0.24697745  0.00000000  0.51187054
   0.00332291  0.00000000  0.51178617
   0.62500000  0.50000000  0.18750000
   0.87500000  0.50000000  0.18750000
   0.62500000  0.00000000  0.06250000
   0.87500000  0.00000000  0.06250000
   0.50000000  0.50000000  0.06250000
   0.75000000  0.50000000  0.06250000
   0.50000000  0.00000000  0.18750000
   0.75000000  0.00000000  0.18750000
   0.62484018  0.50000000  0.43603054
   0.87450313  0.50000000  0.43893052
   0.62480008  0.00000000  0.31314973
   0.87572494  0.00000000  0.31256965
   0.49953362  0.50000000  0.31261204
   0.75028429  0.50000000  0.31262850
   0.50550136  0.00000000  0.44007222
   0.74403122  0.00000000  0.43989820
   0.50000000  0.50000000  0.13961000
   0.75000000  0.50000000  0.13961000
   0.50000000  0.00000000  0.01461000
   0.75000000  0.00000000  0.01461000
   0.62500000  0.80844000  0.18750000
   0.87500000  0.80844000  0.18750000
   0.62500000  0.30844000  0.06250000
   0.87500000  0.30844000  0.06250000
   0.50000000  0.50000000  0.23539000
   0.75000000  0.50000000  0.23539000
   0.50000000  0.00000000  0.11039000
   0.75000000  0.00000000  0.11039000
   0.62500000  0.19156000  0.18750000
   0.87500000  0.19156000  0.18750000
   0.62500000  0.69156000  0.06250000
   0.87500000  0.69156000  0.06250000
   0.49827371  0.50000000  0.38891528
   0.75157917  0.50000000  0.38897461
   0.50002781  0.00000000  0.26495660
   0.74976504  0.00000000  0.26484206
   0.62473253  0.80491604  0.42842109
   0.87165083  0.80923615  0.44055647
   0.62472353  0.30805799  0.31229779
   0.87551403  0.30784247  0.31231711
   0.50247148  0.50000000  0.48298455
   0.74703961  0.50000000  0.48308245
   0.49605454  0.00000000  0.36052876
   0.75334946  0.00000000  0.36040022
   0.62473253  0.19508396  0.42842109
   0.87165083  0.19076385  0.44055647
   0.62472353  0.69194201  0.31229779
   0.87551403  0.69215753  0.31231711
   0.69145430  0.00000000  0.50843635
   0.55866095  0.00000000  0.50859813
 
 position of ions in cartesian coordinates  (Angst):
   1.60106650  3.23512150  4.85268225
   4.80319950  3.23512150  4.85268225
   1.60106650  0.00000000  1.61756075
   4.80319950  0.00000000  1.61756075
   0.00000000  3.23512150  1.61756075
   3.20213300  3.23512150  1.61756075
   0.00000000  0.00000000  4.85268225
   3.20213300  0.00000000  4.85268225
   1.60047198  3.23512150 11.34174639
   4.80682441  3.23512150 11.35890674
   1.60001582  0.00000000  8.10942305
   4.79139417  0.00000000  8.09071032
   0.00176166  3.23512150  8.10409594
   3.19944279  3.23512150  8.10353983
  12.78729359  0.00000000 11.45151283
   3.21704339  0.00000000 11.45244058
   0.00000000  3.23512150  3.61324250
   3.20213300  3.23512150  3.61324250
   0.00000000  0.00000000  0.37812100
   3.20213300  0.00000000  0.37812100
   1.60106650  5.23080325  4.85268225
   4.80319950  5.23080325  4.85268225
   1.60106650  1.99568175  1.61756075
   4.80319950  1.99568175  1.61756075
   0.00000000  3.23512150  6.09212200
   3.20213300  3.23512150  6.09212200
   0.00000000  0.00000000  2.85700050
   3.20213300  0.00000000  2.85700050
   1.60106650  1.23943975  4.85268225
   4.80319950  1.23943975  4.85268225
   1.60106650  4.47456125  1.61756075
   4.80319950  4.47456125  1.61756075
  12.80348612  3.23512150 10.09282878
   3.20760928  3.23512150 10.09039547
   0.00850744  0.00000000  6.85420170
   3.19193540  0.00000000  6.85375991
   1.59750559  5.23727296 11.29128870
   4.84133297  5.23538607 11.40126020
   1.59875525  1.99033542  8.10100332
   4.79826833  1.99077952  8.08318726
   0.00253970  3.23512150 12.52718903
   3.19917168  3.23512150 12.52955583
  12.79819509  0.00000000  9.35778521
   3.20969181  0.00000000  9.35899267
   1.59750559  1.23297004 11.29128870
   4.84133297  1.23485693 11.40126020
   1.59875525  4.47990758  8.10100332
   4.79826833  4.47946348  8.08318726
   3.16341863  0.00000000 13.24770708
   0.04256155  0.00000000 13.24552354
   8.00533250  3.23512150  4.85268225
  11.20746550  3.23512150  4.85268225
   8.00533250  0.00000000  1.61756075
  11.20746550  0.00000000  1.61756075
   6.40426600  3.23512150  1.61756075
   9.60639900  3.23512150  1.61756075
   6.40426600  0.00000000  4.85268225
   9.60639900  0.00000000  4.85268225
   8.00328549  3.23512150 11.28489423
  11.20110128  3.23512150 11.35994849
   8.00277186  0.00000000  8.10461936
  11.21675086  0.00000000  8.08960647
   6.39829239  3.23512150  8.09070338
   9.61004036  3.23512150  8.09112941
   6.47473036  0.00000000 11.38949681
   9.52994770  0.00000000 11.38499290
   6.40426600  3.23512150  3.61324250
   9.60639900  3.23512150  3.61324250
   6.40426600  0.00000000  0.37812100
   9.60639900  0.00000000  0.37812100
   8.00533250  5.23080325  4.85268225
  11.20746550  5.23080325  4.85268225
   8.00533250  1.99568175  1.61756075
  11.20746550  1.99568175  1.61756075
   6.40426600  3.23512150  6.09212200
   9.60639900  3.23512150  6.09212200
   6.40426600  0.00000000  2.85700050
   9.60639900  0.00000000  2.85700050
   8.00533250  1.23943975  4.85268225
  11.20746550  1.23943975  4.85268225
   8.00533250  4.47456125  1.61756075
  11.20746550  4.47456125  1.61756075
   6.38215470  3.23512150 10.06550546
   9.62662589  3.23512150 10.06704108
   6.40462219  0.00000000  6.85733424
   9.60338955  0.00000000  6.85436982
   8.00190665  5.20800238 11.08795418
  11.16456761  5.23595454 11.40202969
   8.00179136  1.99321007  8.08257044
  11.21404943  1.99181556  8.08307028
   6.43592203  3.23512150 12.50010954
   9.56848077  3.23512150 12.50264334
   6.35373039  0.00000000  9.33083468
   9.64930071  0.00000000  9.32750803
   8.00190665  1.26224062 11.08795418
  11.16456761  1.23428846 11.40202969
   8.00179136  4.47703293  8.08257044
  11.21404943  4.47842744  8.08307028
   8.85651453  0.00000000 13.15882698
   7.15562661  0.00000000 13.16301401
 


--------------------------------------------------------------------------------------------------------


 k-point  1 :   0.0000 0.0000 0.0000  plane waves:   54455
 k-point  2 :   0.3333 0.0000 0.0000  plane waves:   54459
 k-point  3 :   0.0000 0.3333 0.0000  plane waves:   54468
 k-point  4 :   0.3333 0.3333 0.0000  plane waves:   54434

 maximum and minimum number of plane-waves per node :     54468    54434

 maximum number of plane-waves:     54468
 maximum index in each direction: 
   IXMAX=   23   IYMAX=   11   IZMAX=   47
   IXMIN=  -23   IYMIN=  -12   IZMIN=  -47


 serial   3D FFT for wavefunctions
 parallel 3D FFT for charge:
    minimum data exchange during FFTs selected (reduces bandwidth)


 total amount of memory used by VASP MPI-rank0   179680. kBytes
=======================================================================

   base      :      30000. kBytes
   nonlr-proj:      19854. kBytes
   fftplans  :       4196. kBytes
   grid      :      37119. kBytes
   one-center:       3110. kBytes
   wavefun   :      85401. kBytes
 
     INWAV:  cpu time    0.0000: real time    0.0002
 Broyden mixing: mesh for mixing (old mesh)
   NGX = 47   NGY = 23   NGZ = 95
  (NGX  =140   NGY  = 72   NGZ  =288)
  gives a total of 102695 points

 initial charge density was supplied:
 charge density of overlapping atoms calculated
 number of electron     696.0000000 magnetization      60.0000000
 keeping initial charge density in first step


--------------------------------------------------------------------------------------------------------


 Maximum index for non-local projection operator         2435
 Maximum index for augmentation-charges          641 (set IRDMAX)


--------------------------------------------------------------------------------------------------------


 First call to EWALD:  gamma=   0.137
 Maximum number of real-space cells 3x 5x 2
 Maximum number of reciprocal cells 3x 2x 5

    FEWALD:  cpu time    0.0048: real time    0.0048


--------------------------------------- Iteration      1(   1)  ---------------------------------------


    POTLOK:  cpu time    0.1400: real time    0.1439
    SETDIJ:  cpu time    0.0199: real time    0.0200
     EDDAV:  cpu time   17.1896: real time   17.2423
       DOS:  cpu time    0.0010: real time    0.0011
    --------------------------------------------
      LOOP:  cpu time   17.3505: real time   17.4073

 eigenvalue-minimisations  :  7680
 total energy-change (2. order) : 0.7408710E+04  (-0.3128384E+05)
 number of electron     696.0000000 magnetization      60.0000000
 augmentation part      696.0000000 magnetization      60.0000000

 Free energy of the ion-electron system (eV)
  ---------------------------------------------------
  alpha Z        PSCENC =      1826.57435200
  Ewald energy   TEWEN  =    229990.83020026
  -Hartree energ DENC   =   -276901.42015516
  -exchange      EXHF   =         0.00000000
  -V(xc)+E(xc)   XCENC  =      1311.68559994
  PAW double counting   =     41249.06120504   -40032.83491672
  entropy T*S    EENTRO =        -0.05325320
  eigenvalues    EBANDS =      2666.80954457
  atomic energy  EATOM  =     47298.05697971
  Solvation  Ediel_sol  =         0.00000000
  ---------------------------------------------------
  free energy    TOTEN  =      7408.70955643 eV

  energy without entropy =     7408.76280963  energy(sigma->0) =     7408.73618303


--------------------------------------------------------------------------------------------------------




--------------------------------------- Iteration      1(   2)  ---------------------------------------


     EDDAV:  cpu time   17.7051: real time   17.7594
       DOS:  cpu time    0.0009: real time    0.0009
    --------------------------------------------
      LOOP:  cpu time   17.7059: real time   17.7602

 eigenvalue-minimisations  :  8000
 total energy-change (2. order) :-0.7053273E+04  (-0.6429285E+04)
 number of electron     696.0000000 magnetization      60.0000000
 augmentation part      696.0000000 magnetization      60.0000000

 Free energy of the ion-electron system (eV)
  ---------------------------------------------------
  alpha Z        PSCENC =      1826.57435200
  Ewald energy   TEWEN  =    229990.83020026
  -Hartree energ DENC   =   -276901.42015516
  -exchange      EXHF   =         0.00000000
  -V(xc)+E(xc)   XCENC  =      1311.68559994
  PAW double counting   =     41249.06120504   -40032.83491672
  entropy T*S    EENTRO =        -0.05106775
  eigenvalues    EBANDS =     -4386.46548691
  atomic energy  EATOM  =     47298.05697971
  Solvation  Ediel_sol  =         0.00000000
  ---------------------------------------------------
  free energy    TOTEN  =       355.43671040 eV

  energy without entropy =      355.48777815  energy(sigma->0) =      355.46224428


--------------------------------------------------------------------------------------------------------




--------------------------------------- Iteration      1(   3)  ---------------------------------------


     EDDAV:  cpu time   21.0961: real time   21.1718
       DOS:  cpu time    0.0008: real time    0.0008
    --------------------------------------------
      LOOP:  cpu time   21.0969: real time   21.1726

 eigenvalue-minimisations  :  9840
 total energy-change (2. order) :-0.1087431E+04  (-0.1040130E+04)
 number of electron     696.0000000 magnetization      60.0000000
 augmentation part      696.0000000 magnetization      60.0000000

 Free energy of the ion-electron system (eV)
  ---------------------------------------------------
  alpha Z        PSCENC =      1826.57435200
  Ewald energy   TEWEN  =    229990.83020026
  -Hartree energ DENC   =   -276901.42015516
  -exchange      EXHF   =         0.00000000
  -V(xc)+E(xc)   XCENC  =      1311.68559994
  PAW double counting   =     41249.06120504   -40032.83491672
  entropy T*S    EENTRO =        -0.06531979
  eigenvalues    EBANDS =     -5473.88185601
  atomic energy  EATOM  =     47298.05697971
  Solvation  Ediel_sol  =         0.00000000
  ---------------------------------------------------
  free energy    TOTEN  =      -731.99391075 eV

  energy without entropy =     -731.92859095  energy(sigma->0) =     -731.96125085


--------------------------------------------------------------------------------------------------------




--------------------------------------- Iteration      1(   4)  ---------------------------------------


     EDDAV:  cpu time   20.0449: real time   20.1347
       DOS:  cpu time    0.0009: real time    0.0009
    --------------------------------------------
      LOOP:  cpu time   20.0458: real time   20.1356

 eigenvalue-minimisations  :  9280
 total energy-change (2. order) :-0.4294749E+02  (-0.4227500E+02)
 number of electron     696.0000000 magnetization      60.0000000
 augmentation part      696.0000000 magnetization      60.0000000

 Free energy of the ion-electron system (eV)
  ---------------------------------------------------
  alpha Z        PSCENC =      1826.57435200
  Ewald energy   TEWEN  =    229990.83020026
  -Hartree energ DENC   =   -276901.42015516
  -exchange      EXHF   =         0.00000000
  -V(xc)+E(xc)   XCENC  =      1311.68559994
  PAW double counting   =     41249.06120504   -40032.83491672
  entropy T*S    EENTRO =        -0.06672777
  eigenvalues    EBANDS =     -5516.82793683
  atomic energy  EATOM  =     47298.05697971
  Solvation  Ediel_sol  =         0.00000000
  ---------------------------------------------------
  free energy    TOTEN  =      -774.94139954 eV

  energy without entropy =     -774.87467177  energy(sigma->0) =     -774.90803566


--------------------------------------------------------------------------------------------------------




--------------------------------------- Iteration      1(   5)  ---------------------------------------


     EDDAV:  cpu time   21.0112: real time   21.0758
       DOS:  cpu time    0.0008: real time    0.0008
    CHARGE:  cpu time    0.7635: real time    0.7658
    MIXING:  cpu time    0.0036: real time    0.0036
    --------------------------------------------
      LOOP:  cpu time   21.7791: real time   21.8460

 eigenvalue-minimisations  :  9840
 total energy-change (2. order) :-0.1187924E+01  (-0.1185901E+01)
 number of electron     696.0000480 magnetization      55.9864911
 augmentation part      119.2382384 magnetization      47.4038827

 Broyden mixing:
  rms(total) = 0.17609E+02    rms(broyden)= 0.17608E+02
  rms(prec ) = 0.17856E+02
  weight for this iteration     100.00

 Free energy of the ion-electron system (eV)
  ---------------------------------------------------
  alpha Z        PSCENC =      1826.57435200
  Ewald energy   TEWEN  =    229990.83020026
  -Hartree energ DENC   =   -276901.42015516
  -exchange      EXHF   =         0.00000000
  -V(xc)+E(xc)   XCENC  =      1311.68559994
  PAW double counting   =     41249.06120504   -40032.83491672
  entropy T*S    EENTRO =        -0.06710989
  eigenvalues    EBANDS =     -5518.01547854
  atomic energy  EATOM  =     47298.05697971
  Solvation  Ediel_sol  =         0.00000000
  ---------------------------------------------------
  free energy    TOTEN  =      -776.12932336 eV

  energy without entropy =     -776.06221348  energy(sigma->0) =     -776.09576842


--------------------------------------------------------------------------------------------------------




--------------------------------------- Iteration      1(   6)  ---------------------------------------


    POTLOK:  cpu time    0.1155: real time    0.1204
    SETDIJ:  cpu time    0.0204: real time    0.0204
    EDDIAG:  cpu time    3.3903: real time    3.4003
  RMM-DIIS:  cpu time    9.0539: real time    9.0823
    ORTHCH:  cpu time    0.8087: real time    0.8110
       DOS:  cpu time    0.0008: real time    0.0008
    CHARGE:  cpu time    0.7477: real time    0.7500
    MIXING:  cpu time    0.0032: real time    0.0032
    --------------------------------------------
      LOOP:  cpu time   14.1405: real time   14.1885

 eigenvalue-minimisations  :  7691
 total energy-change (2. order) : 0.1007819E+03  (-0.6795362E+02)
 number of electron     696.0000453 magnetization      53.0120905
 augmentation part      131.6195707 magnetization      45.2769331

 Broyden mixing:
  rms(total) = 0.13022E+02    rms(broyden)= 0.13019E+02
  rms(prec ) = 0.14197E+02
  weight for this iteration     100.00

 eigenvalues of (default mixing * dielectric matrix)
  average eigenvalue GAMMA=   0.8193
  0.8193

 Free energy of the ion-electron system (eV)
  ---------------------------------------------------
  alpha Z        PSCENC =      1826.57435200
  Ewald energy   TEWEN  =    229990.83020026
  -Hartree energ DENC   =   -277035.49444932
  -exchange      EXHF   =         0.00000000
  -V(xc)+E(xc)   XCENC  =      1396.10049054
  PAW double counting   =     49245.79315303   -48095.85690821
  entropy T*S    EENTRO =        -0.07790286
  eigenvalues    EBANDS =     -5301.27330874
  atomic energy  EATOM  =     47298.05697971
  Solvation  Ediel_sol  =         0.00000000
  ---------------------------------------------------
  free energy    TOTEN  =      -675.34739361 eV

  energy without entropy =     -675.26949074  energy(sigma->0) =     -675.30844217


--------------------------------------------------------------------------------------------------------




--------------------------------------- Iteration      1(   7)  ---------------------------------------


    POTLOK:  cpu time    0.1148: real time    0.1154
    SETDIJ:  cpu time    0.0200: real time    0.0200
    EDDIAG:  cpu time    3.4081: real time    3.4186
  RMM-DIIS:  cpu time    9.2242: real time    9.2806
    ORTHCH:  cpu time    0.8102: real time    0.8123
       DOS:  cpu time    0.0008: real time    0.0008
    CHARGE:  cpu time    0.7507: real time    0.7525
    MIXING:  cpu time    0.0035: real time    0.0035
    --------------------------------------------
      LOOP:  cpu time   14.3322: real time   14.4037

 eigenvalue-minimisations  :  7891
 total energy-change (2. order) :-0.4729451E+03  (-0.3833418E+02)
 number of electron     696.0000355 magnetization      52.3568307
 augmentation part      121.3731143 magnetization      39.6101395

 Broyden mixing:
  rms(total) = 0.33301E+02    rms(broyden)= 0.33300E+02
  rms(prec ) = 0.37567E+02
  weight for this iteration     100.00

 eigenvalues of (default mixing * dielectric matrix)
  average eigenvalue GAMMA=   0.4450
  0.8598  0.0302

 Free energy of the ion-electron system (eV)
  ---------------------------------------------------
  alpha Z        PSCENC =      1826.57435200
  Ewald energy   TEWEN  =    229990.83020026
  -Hartree energ DENC   =   -278038.33919765
  -exchange      EXHF   =         0.00000000
  -V(xc)+E(xc)   XCENC  =      1371.95000783
  PAW double counting   =     53598.02276478   -52451.14485508
  entropy T*S    EENTRO =        -0.06678295
  eigenvalues    EBANDS =     -4744.17594992
  atomic energy  EATOM  =     47298.05697971
  Solvation  Ediel_sol  =         0.00000000
  ---------------------------------------------------
  free energy    TOTEN  =     -1148.29248103 eV

  energy without entropy =    -1148.22569808  energy(sigma->0) =    -1148.25908955


--------------------------------------------------------------------------------------------------------




--------------------------------------- Iteration      1(   8)  ---------------------------------------


    POTLOK:  cpu time    0.1168: real time    0.1265
    SETDIJ:  cpu time    0.0204: real time    0.0204
    EDDIAG:  cpu time    3.3918: real time    3.4010
  RMM-DIIS:  cpu time    9.1319: real time    9.1568
    ORTHCH:  cpu time    0.8093: real time    0.8115
       DOS:  cpu time    0.0008: real time    0.0008
    CHARGE:  cpu time    0.7570: real time    0.7591
    MIXING:  cpu time    0.0032: real time    0.0032
    --------------------------------------------
      LOOP:  cpu time   14.2312: real time   14.2793

 eigenvalue-minimisations  :  7734
 total energy-change (2. order) : 0.2335237E+03  (-0.3077496E+01)
 number of electron     696.0000369 magnetization      50.9030058
 augmentation part      123.4785360 magnetization      38.2518189

 Broyden mixing:
  rms(total) = 0.25955E+02    rms(broyden)= 0.25955E+02
  rms(prec ) = 0.29208E+02
  weight for this iteration     100.00

 eigenvalues of (default mixing * dielectric matrix)
  average eigenvalue GAMMA=   0.4677
  0.8888  0.2572  0.2572

 Free energy of the ion-electron system (eV)
  ---------------------------------------------------
  alpha Z        PSCENC =      1826.57435200
  Ewald energy   TEWEN  =    229990.83020026
  -Hartree energ DENC   =   -278040.42926351
  -exchange      EXHF   =         0.00000000
  -V(xc)+E(xc)   XCENC  =      1370.90622770
  PAW double counting   =     54795.32202679   -53649.97470090
  entropy T*S    EENTRO =        -0.06311748
  eigenvalues    EBANDS =     -4505.99145246
  atomic energy  EATOM  =     47298.05697971
  Solvation  Ediel_sol  =         0.00000000
  ---------------------------------------------------
  free energy    TOTEN  =      -914.76874790 eV

  energy without entropy =     -914.70563041  energy(sigma->0) =     -914.73718915


--------------------------------------------------------------------------------------------------------




--------------------------------------- Iteration      1(   9)  ---------------------------------------


    POTLOK:  cpu time    0.1146: real time    0.1161
    SETDIJ:  cpu time    0.0203: real time    0.0204
    EDDIAG:  cpu time    3.3934: real time    3.4024
  RMM-DIIS:  cpu time    9.0666: real time    9.0913
    ORTHCH:  cpu time    0.8086: real time    0.8107
       DOS:  cpu time    0.0008: real time    0.0008
    CHARGE:  cpu time    0.7522: real time    0.7543
    MIXING:  cpu time    0.0034: real time    0.0034
    --------------------------------------------
      LOOP:  cpu time   14.1599: real time   14.1993

 eigenvalue-minimisations  :  7682
 total energy-change (2. order) :-0.6952291E+02  (-0.9897927E+01)
 number of electron     696.0000408 magnetization      49.0652884
 augmentation part      129.7407920 magnetization      42.3373310

 Broyden mixing:
  rms(total) = 0.28954E+02    rms(broyden)= 0.28953E+02
  rms(prec ) = 0.33374E+02
  weight for this iteration     100.00

 eigenvalues of (default mixing * dielectric matrix)
  average eigenvalue GAMMA=   0.4661
  1.1029  0.3173  0.3173  0.1269

 Free energy of the ion-electron system (eV)
  ---------------------------------------------------
  alpha Z        PSCENC =      1826.57435200
  Ewald energy   TEWEN  =    229990.83020026
  -Hartree energ DENC   =   -277215.59145433
  -exchange      EXHF   =         0.00000000
  -V(xc)+E(xc)   XCENC  =      1368.55605161
  PAW double counting   =     56133.38185028   -54993.85889514
  entropy T*S    EENTRO =        -0.04255163
  eigenvalues    EBANDS =     -5392.19818678
  atomic energy  EATOM  =     47298.05697971
  Solvation  Ediel_sol  =         0.00000000
  ---------------------------------------------------
  free energy    TOTEN  =      -984.29165402 eV

  energy without entropy =     -984.24910239  energy(sigma->0) =     -984.27037821


--------------------------------------------------------------------------------------------------------




--------------------------------------- Iteration      1(  10)  ---------------------------------------


    POTLOK:  cpu time    0.1145: real time    0.1151
    SETDIJ:  cpu time    0.0202: real time    0.0202
    EDDIAG:  cpu time    3.3888: real time    3.3979
  RMM-DIIS:  cpu time    9.0971: real time    9.1218
    ORTHCH:  cpu time    0.8082: real time    0.8102
       DOS:  cpu time    0.0008: real time    0.0008
    CHARGE:  cpu time    0.7509: real time    0.7530
    MIXING:  cpu time    0.0037: real time    0.0037
    --------------------------------------------
      LOOP:  cpu time   14.1842: real time   14.2227

 eigenvalue-minimisations  :  7734
 total energy-change (2. order) : 0.2149157E+03  (-0.5811663E+01)
 number of electron     696.0000447 magnetization      45.2787070
 augmentation part      122.3423433 magnetization      39.9523265

 Broyden mixing:
  rms(total) = 0.13913E+02    rms(broyden)= 0.13911E+02
  rms(prec ) = 0.14871E+02
  weight for this iteration     100.00

 eigenvalues of (default mixing * dielectric matrix)
  average eigenvalue GAMMA=   0.5830
  1.8223  0.4007  0.2739  0.2739  0.1442

 Free energy of the ion-electron system (eV)
  ---------------------------------------------------
  alpha Z        PSCENC =      1826.57435200
  Ewald energy   TEWEN  =    229990.83020026
  -Hartree energ DENC   =   -277641.34775464
  -exchange      EXHF   =         0.00000000
  -V(xc)+E(xc)   XCENC  =      1366.68306646
  PAW double counting   =     58425.25334390   -57290.68784707
  entropy T*S    EENTRO =        -0.06303655
  eigenvalues    EBANDS =     -4744.67524886
  atomic energy  EATOM  =     47298.05697971
  Solvation  Ediel_sol  =         0.00000000
  ---------------------------------------------------
  free energy    TOTEN  =      -769.37594481 eV

  energy without entropy =     -769.31290826  energy(sigma->0) =     -769.34442653


--------------------------------------------------------------------------------------------------------




--------------------------------------- Iteration      1(  11)  ---------------------------------------


    POTLOK:  cpu time    0.1156: real time    0.1161
    SETDIJ:  cpu time    0.0203: real time    0.0203
    EDDIAG:  cpu time    3.3858: real time    3.3951
  RMM-DIIS:  cpu time    9.0255: real time    9.0820
    ORTHCH:  cpu time    0.8106: real time    0.8127
       DOS:  cpu time    0.0008: real time    0.0008
    CHARGE:  cpu time    0.7523: real time    0.7543
    MIXING:  cpu time    0.0037: real time    0.0037
    --------------------------------------------
      LOOP:  cpu time   14.1146: real time   14.1850

 eigenvalue-minimisations  :  7681
 total energy-change (2. order) : 0.1360239E+03  (-0.7861478E+01)
 number of electron     696.0000452 magnetization      43.8788025
 augmentation part      122.8995105 magnetization      38.3001696

 Broyden mixing:
  rms(total) = 0.55180E+01    rms(broyden)= 0.55167E+01
  rms(prec ) = 0.70907E+01
  weight for this iteration     100.00

 eigenvalues of (default mixing * dielectric matrix)
  average eigenvalue GAMMA=   0.5699
  1.7447  0.5024  0.5024  0.2659  0.2659  0.1381

 Free energy of the ion-electron system (eV)
  ---------------------------------------------------
  alpha Z        PSCENC =      1826.57435200
  Ewald energy   TEWEN  =    229990.83020026
  -Hartree energ DENC   =   -277694.70930886
  -exchange      EXHF   =         0.00000000
  -V(xc)+E(xc)   XCENC  =      1377.68705203
  PAW double counting   =     62725.20433791   -61610.54652529
  entropy T*S    EENTRO =        -0.05686752
  eigenvalues    EBANDS =     -4546.39230179
  atomic energy  EATOM  =     47298.05697971
  Solvation  Ediel_sol  =         0.00000000
  ---------------------------------------------------
  free energy    TOTEN  =      -633.35208155 eV

  energy without entropy =     -633.29521403  energy(sigma->0) =     -633.32364779


--------------------------------------------------------------------------------------------------------




--------------------------------------- Iteration      1(  12)  ---------------------------------------


    POTLOK:  cpu time    0.1148: real time    0.1153
    SETDIJ:  cpu time    0.0203: real time    0.0204
    EDDIAG:  cpu time    3.3863: real time    3.3954
  RMM-DIIS:  cpu time    9.0378: real time    9.0623
    ORTHCH:  cpu time    0.8094: real time    0.8115
       DOS:  cpu time    0.0008: real time    0.0008
    CHARGE:  cpu time    0.7465: real time    0.7490
    MIXING:  cpu time    0.0040: real time    0.0040
    --------------------------------------------
      LOOP:  cpu time   14.1199: real time   14.1586

 eigenvalue-minimisations  :  7712
 total energy-change (2. order) :-0.3152419E+02  (-0.2813606E+01)
 number of electron     696.0000492 magnetization      42.0623178
 augmentation part      123.9027321 magnetization      36.3464533

 Broyden mixing:
  rms(total) = 0.79485E+01    rms(broyden)= 0.79468E+01
  rms(prec ) = 0.10764E+02
  weight for this iteration     100.00

 eigenvalues of (default mixing * dielectric matrix)
  average eigenvalue GAMMA=   0.5454
  1.9272  0.5280  0.3171  0.3171  0.2972  0.2972  0.1339

 Free energy of the ion-electron system (eV)
  ---------------------------------------------------
  alpha Z        PSCENC =      1826.57435200
  Ewald energy   TEWEN  =    229990.83020026
  -Hartree energ DENC   =   -277622.53448116
  -exchange      EXHF   =         0.00000000
  -V(xc)+E(xc)   XCENC  =      1379.93749865
  PAW double counting   =     61945.63794335   -60833.49275961
  entropy T*S    EENTRO =        -0.05262625
  eigenvalues    EBANDS =     -4649.83337764
  atomic energy  EATOM  =     47298.05697971
  Solvation  Ediel_sol  =         0.00000000
  ---------------------------------------------------
  free energy    TOTEN  =      -664.87627071 eV

  energy without entropy =     -664.82364446  energy(sigma->0) =     -664.84995758


--------------------------------------------------------------------------------------------------------




--------------------------------------- Iteration      1(  13)  ---------------------------------------


    POTLOK:  cpu time    0.1162: real time    0.1262
    SETDIJ:  cpu time    0.0203: real time    0.0203
    EDDIAG:  cpu time    3.3829: real time    3.3922
  RMM-DIIS:  cpu time    9.0355: real time    9.0600
    ORTHCH:  cpu time    0.8094: real time    0.8116
       DOS:  cpu time    0.0009: real time    0.0009
    CHARGE:  cpu time    0.7523: real time    0.7543
    MIXING:  cpu time    0.0047: real time    0.0047
    --------------------------------------------
      LOOP:  cpu time   14.1222: real time   14.1701

 eigenvalue-minimisations  :  7687
 total energy-change (2. order) : 0.4824479E+02  (-0.6659387E+00)
 number of electron     696.0000463 magnetization      41.2304097
 augmentation part      124.0995406 magnetization      33.3778153

 Broyden mixing:
  rms(total) = 0.38209E+01    rms(broyden)= 0.38202E+01
  rms(prec ) = 0.45914E+01
  weight for this iteration     100.00

 eigenvalues of (default mixing * dielectric matrix)
  average eigenvalue GAMMA=   0.5296
  1.8884  0.6043  0.4178  0.4178  0.2430  0.2430  0.1351  0.2871

 Free energy of the ion-electron system (eV)
  ---------------------------------------------------
  alpha Z        PSCENC =      1826.57435200
  Ewald energy   TEWEN  =    229990.83020026
  -Hartree energ DENC   =   -277547.00574073
  -exchange      EXHF   =         0.00000000
  -V(xc)+E(xc)   XCENC  =      1379.49558934
  PAW double counting   =     63068.58123078   -61959.89525127
  entropy T*S    EENTRO =        -0.05911799
  eigenvalues    EBANDS =     -4673.20972734
  atomic energy  EATOM  =     47298.05697971
  Solvation  Ediel_sol  =         0.00000000
  ---------------------------------------------------
  free energy    TOTEN  =      -616.63148524 eV

  energy without entropy =     -616.57236725  energy(sigma->0) =     -616.60192624


--------------------------------------------------------------------------------------------------------




--------------------------------------- Iteration      1(  14)  ---------------------------------------


    POTLOK:  cpu time    0.1154: real time    0.1180
    SETDIJ:  cpu time    0.0203: real time    0.0204
    EDDIAG:  cpu time    3.3854: real time    3.3946
  RMM-DIIS:  cpu time    9.0570: real time    9.0812
    ORTHCH:  cpu time    0.8104: real time    0.8127
       DOS:  cpu time    0.0009: real time    0.0009
    CHARGE:  cpu time    0.7589: real time    0.7611
    MIXING:  cpu time    0.0042: real time    0.0043
    --------------------------------------------
      LOOP:  cpu time   14.1526: real time   14.1930

 eigenvalue-minimisations  :  7703
 total energy-change (2. order) : 0.1070447E+01  (-0.3645987E+00)
 number of electron     696.0000471 magnetization      40.6223343
 augmentation part      124.4164977 magnetization      32.0919210

 Broyden mixing:
  rms(total) = 0.39779E+01    rms(broyden)= 0.39774E+01
  rms(prec ) = 0.45580E+01
  weight for this iteration     100.00

 eigenvalues of (default mixing * dielectric matrix)
  average eigenvalue GAMMA=   0.5184
  1.8981  0.5859  0.5137  0.5137  0.2656  0.2656  0.1351  0.2442  0.2442

 Free energy of the ion-electron system (eV)
  ---------------------------------------------------
  alpha Z        PSCENC =      1826.57435200
  Ewald energy   TEWEN  =    229990.83020026
  -Hartree energ DENC   =   -277383.88696925
  -exchange      EXHF   =         0.00000000
  -V(xc)+E(xc)   XCENC  =      1376.52217222
  PAW double counting   =     62910.82619863   -61802.87457009
  entropy T*S    EENTRO =        -0.07423519
  eigenvalues    EBANDS =     -4831.53516644
  atomic energy  EATOM  =     47298.05697971
  Solvation  Ediel_sol  =         0.00000000
  ---------------------------------------------------
  free energy    TOTEN  =      -615.56103816 eV

  energy without entropy =     -615.48680297  energy(sigma->0) =     -615.52392056


--------------------------------------------------------------------------------------------------------




--------------------------------------- Iteration      1(  15)  ---------------------------------------


    POTLOK:  cpu time    0.1145: real time    0.1151
    SETDIJ:  cpu time    0.0202: real time    0.0203
    EDDIAG:  cpu time    3.3823: real time    3.3910
  RMM-DIIS:  cpu time    9.0442: real time    9.0686
    ORTHCH:  cpu time    0.8086: real time    0.8106
       DOS:  cpu time    0.0008: real time    0.0008
    CHARGE:  cpu time    0.7315: real time    0.7639
[...]
 
   5 f  =    6.423506 THz    40.360079 2PiTHz  214.265095 cm-1    26.565496 meV
             X         Y         Z           dx          dy          dz
      1.601066  3.235121  4.852682            0           0           0  
      4.803199  3.235121  4.852682            0           0           0  
      1.601066  0.000000  1.617561            0           0           0  
      4.803199  0.000000  1.617561            0           0           0  
      0.000000  3.235121  1.617561            0           0           0  
      3.202133  3.235121  1.617561            0           0           0  
      0.000000  0.000000  4.852682            0           0           0  
      3.202133  0.000000  4.852682            0           0           0  
      1.600472  3.235121 11.341746            0           0           0  
      4.806824  3.235121 11.358907            0           0           0  
      1.600016  0.000000  8.109423            0           0           0  
      4.791394  0.000000  8.090710            0           0           0  
      0.001762  3.235121  8.104096            0           0           0  
      3.199443  3.235121  8.103540            0           0           0  
     12.787294  0.000000 11.451513            0           0           0  
      3.217043  0.000000 11.452441            0           0           0  
      0.000000  3.235121  3.613243            0           0           0  
      3.202133  3.235121  3.613243            0           0           0  
      0.000000  0.000000  0.378121            0           0           0  
      3.202133  0.000000  0.378121            0           0           0  
      1.601066  5.230803  4.852682            0           0           0  
      4.803199  5.230803  4.852682            0           0           0  
      1.601066  1.995682  1.617561            0           0           0  
      4.803199  1.995682  1.617561            0           0           0  
      0.000000  3.235121  6.092122            0           0           0  
      3.202133  3.235121  6.092122            0           0           0  
      0.000000  0.000000  2.857000            0           0           0  
      3.202133  0.000000  2.857000            0           0           0  
      1.601066  1.239440  4.852682            0           0           0  
      4.803199  1.239440  4.852682            0           0           0  
      1.601066  4.474561  1.617561            0           0           0  
      4.803199  4.474561  1.617561            0           0           0  
     12.803486  3.235121 10.092829            0           0           0  
      3.207609  3.235121 10.090395            0           0           0  
      0.008507  0.000000  6.854202            0           0           0  
      3.191935  0.000000  6.853760            0           0           0  
      1.597506  5.237273 11.291289            0           0           0  
      4.841333  5.235386 11.401260            0           0           0  
      1.598755  1.990335  8.101003            0           0           0  
      4.798268  1.990780  8.083187            0           0           0  
      0.002540  3.235121 12.527189            0           0           0  
      3.199172  3.235121 12.529556            0           0           0  
     12.798195  0.000000  9.357785            0           0           0  
      3.209692  0.000000  9.358993            0           0           0  
      1.597506  1.232970 11.291289            0           0           0  
      4.841333  1.234857 11.401260            0           0           0  
      1.598755  4.479908  8.101003            0           0           0  
      4.798268  4.479463  8.083187            0           0           0  
      3.163419  0.000000 13.247707            0           0           0  
      0.042562  0.000000 13.245524            0           0           0  
      8.005332  3.235121  4.852682            0           0           0  
     11.207465  3.235121  4.852682            0           0           0  
      8.005332  0.000000  1.617561            0           0           0  
     11.207465  0.000000  1.617561            0           0           0  
      6.404266  3.235121  1.617561            0           0           0  
      9.606399  3.235121  1.617561            0           0           0  
      6.404266  0.000000  4.852682            0           0           0  
      9.606399  0.000000  4.852682            0           0           0  
      8.003285  3.235121 11.284894            0           0           0  
     11.201101  3.235121 11.359948            0           0           0  
      8.002772  0.000000  8.104619            0           0           0  
     11.216751  0.000000  8.089606            0           0           0  
      6.398292  3.235121  8.090703            0           0           0  
      9.610040  3.235121  8.091129            0           0           0  
      6.474730  0.000000 11.389497            0           0           0  
      9.529948  0.000000 11.384993            0           0           0  
      6.404266  3.235121  3.613243            0           0           0  
      9.606399  3.235121  3.613243            0           0           0  
      6.404266  0.000000  0.378121            0           0           0  
      9.606399  0.000000  0.378121            0           0           0  
      8.005332  5.230803  4.852682            0           0           0  
     11.207465  5.230803  4.852682            0           0           0  
      8.005332  1.995682  1.617561            0           0           0  
     11.207465  1.995682  1.617561            0           0           0  
      6.404266  3.235121  6.092122            0           0           0  
      9.606399  3.235121  6.092122            0           0           0  
      6.404266  0.000000  2.857000            0           0           0  
      9.606399  0.000000  2.857000            0           0           0  
      8.005332  1.239440  4.852682            0           0           0  
     11.207465  1.239440  4.852682            0           0           0  
      8.005332  4.474561  1.617561            0           0           0  
     11.207465  4.474561  1.617561            0           0           0  
      6.382155  3.235121 10.065505            0           0           0  
      9.626626  3.235121 10.067041            0           0           0  
      6.404622  0.000000  6.857334            0           0           0  
      9.603390  0.000000  6.854370            0           0           0  
      8.001907  5.208002 11.087954            0           0           0  
     11.164568  5.235955 11.402030            0           0           0  
      8.001791  1.993210  8.082570            0           0           0  
     11.214049  1.991816  8.083070            0           0           0  
      6.435922  3.235121 12.500110            0           0           0  
      9.568481  3.235121 12.502643            0           0           0  
      6.353730  0.000000  9.330835            0           0           0  
      9.649301  0.000000  9.327508            0           0           0  
      8.001907  1.262241 11.087954            0           0           0  
     11.164568  1.234288 11.402030            0           0           0  
      8.001791  4.477033  8.082570            0           0           0  
     11.214049  4.478427  8.083070            0           0           0  
      8.856515  0.000000 13.158827    -0.001116   -0.665680    0.000012  
      7.155627  0.000000 13.163014    -0.000205   -0.746236   -0.000260  
 
   6 f/i=   11.580425 THz    72.761957 2PiTHz  386.281391 cm-1    47.892806 meV
             X         Y         Z           dx          dy          dz
      1.601066  3.235121  4.852682            0           0           0  
      4.803199  3.235121  4.852682            0           0           0  
      1.601066  0.000000  1.617561            0           0           0  
      4.803199  0.000000  1.617561            0           0           0  
      0.000000  3.235121  1.617561            0           0           0  
      3.202133  3.235121  1.617561            0           0           0  
      0.000000  0.000000  4.852682            0           0           0  
      3.202133  0.000000  4.852682            0           0           0  
      1.600472  3.235121 11.341746            0           0           0  
      4.806824  3.235121 11.358907            0           0           0  
      1.600016  0.000000  8.109423            0           0           0  
      4.791394  0.000000  8.090710            0           0           0  
      0.001762  3.235121  8.104096            0           0           0  
      3.199443  3.235121  8.103540            0           0           0  
     12.787294  0.000000 11.451513            0           0           0  
      3.217043  0.000000 11.452441            0           0           0  
      0.000000  3.235121  3.613243            0           0           0  
      3.202133  3.235121  3.613243            0           0           0  
      0.000000  0.000000  0.378121            0           0           0  
      3.202133  0.000000  0.378121            0           0           0  
      1.601066  5.230803  4.852682            0           0           0  
      4.803199  5.230803  4.852682            0           0           0  
      1.601066  1.995682  1.617561            0           0           0  
      4.803199  1.995682  1.617561            0           0           0  
      0.000000  3.235121  6.092122            0           0           0  
      3.202133  3.235121  6.092122            0           0           0  
      0.000000  0.000000  2.857000            0           0           0  
      3.202133  0.000000  2.857000            0           0           0  
      1.601066  1.239440  4.852682            0           0           0  
      4.803199  1.239440  4.852682            0           0           0  
      1.601066  4.474561  1.617561            0           0           0  
      4.803199  4.474561  1.617561            0           0           0  
     12.803486  3.235121 10.092829            0           0           0  
      3.207609  3.235121 10.090395            0           0           0  
      0.008507  0.000000  6.854202            0           0           0  
      3.191935  0.000000  6.853760            0           0           0  
      1.597506  5.237273 11.291289            0           0           0  
      4.841333  5.235386 11.401260            0           0           0  
      1.598755  1.990335  8.101003            0           0           0  
      4.798268  1.990780  8.083187            0           0           0  
      0.002540  3.235121 12.527189            0           0           0  
      3.199172  3.235121 12.529556            0           0           0  
     12.798195  0.000000  9.357785            0           0           0  
      3.209692  0.000000  9.358993            0           0           0  
      1.597506  1.232970 11.291289            0           0           0  
      4.841333  1.234857 11.401260            0           0           0  
      1.598755  4.479908  8.101003            0           0           0  
      4.798268  4.479463  8.083187            0           0           0  
      3.163419  0.000000 13.247707            0           0           0  
      0.042562  0.000000 13.245524            0           0           0  
      8.005332  3.235121  4.852682            0           0           0  
     11.207465  3.235121  4.852682            0           0           0  
      8.005332  0.000000  1.617561            0           0           0  
     11.207465  0.000000  1.617561            0           0           0  
      6.404266  3.235121  1.617561            0           0           0  
      9.606399  3.235121  1.617561            0           0           0  
      6.404266  0.000000  4.852682            0           0           0  
      9.606399  0.000000  4.852682            0           0           0  
      8.003285  3.235121 11.284894            0           0           0  
     11.201101  3.235121 11.359948            0           0           0  
      8.002772  0.000000  8.104619            0           0           0  
     11.216751  0.000000  8.089606            0           0           0  
      6.398292  3.235121  8.090703            0           0           0  
      9.610040  3.235121  8.091129            0           0           0  
      6.474730  0.000000 11.389497            0           0           0  
      9.529948  0.000000 11.384993            0           0           0  
      6.404266  3.235121  3.613243            0           0           0  
      9.606399  3.235121  3.613243            0           0           0  
      6.404266  0.000000  0.378121            0           0           0  
      9.606399  0.000000  0.378121            0           0           0  
      8.005332  5.230803  4.852682            0           0           0  
     11.207465  5.230803  4.852682            0           0           0  
      8.005332  1.995682  1.617561            0           0           0  
     11.207465  1.995682  1.617561            0           0           0  
      6.404266  3.235121  6.092122            0           0           0  
      9.606399  3.235121  6.092122            0           0           0  
      6.404266  0.000000  2.857000            0           0           0  
      9.606399  0.000000  2.857000            0           0           0  
      8.005332  1.239440  4.852682            0           0           0  
     11.207465  1.239440  4.852682            0           0           0  
      8.005332  4.474561  1.617561            0           0           0  
     11.207465  4.474561  1.617561            0           0           0  
      6.382155  3.235121 10.065505            0           0           0  
      9.626626  3.235121 10.067041            0           0           0  
      6.404622  0.000000  6.857334            0           0           0  
      9.603390  0.000000  6.854370            0           0           0  
      8.001907  5.208002 11.087954            0           0           0  
     11.164568  5.235955 11.402030            0           0           0  
      8.001791  1.993210  8.082570            0           0           0  
     11.214049  1.991816  8.083070            0           0           0  
      6.435922  3.235121 12.500110            0           0           0  
      9.568481  3.235121 12.502643            0           0           0  
      6.353730  0.000000  9.330835            0           0           0  
      9.649301  0.000000  9.327508            0           0           0  
      8.001907  1.262241 11.087954            0           0           0  
     11.164568  1.234288 11.402030            0           0           0  
      8.001791  4.477033  8.082570            0           0           0  
     11.214049  4.478427  8.083070            0           0           0  
      8.856515  0.000000 13.158827    -0.625714    0.000477    0.198607  
      7.155627  0.000000 13.163014     0.723109    0.000240    0.214824  
 
 Finite differences POTIM=  1.500000000000000E-002
  LATTYP: Found a simple orthorhombic cell.
 ALAT       =     6.4702430000
 B/A-ratio  =     1.9796060210
 C/A-ratio  =     4.0000000000
  
  Lattice vectors:
  
 A1 = (   0.0000000000,  -6.4702430000,   0.0000000000)
 A2 = ( -12.8085320000,   0.0000000000,   0.0000000000)
 A3 = (   0.0000000000,   0.0000000000, -25.8809720000)


Analysis of symmetry for initial positions (statically):
=====================================================================
 Subroutine PRICEL returns:
 Original cell was already a primitive cell.
 

 Routine SETGRP: Setting up the symmetry group for a 
 simple orthorhombic supercell.


 Subroutine GETGRP returns: Found  2 space group operations
 (whereof  2 operations were pure point group operations)
 out of a pool of  8 trial point group operations.


The static configuration has the point symmetry C_1h.


Analysis of symmetry for dynamics (positions and initial velocities):
=====================================================================
 Subroutine PRICEL returns:
 Original cell was already a primitive cell.
 

 Routine SETGRP: Setting up the symmetry group for a 
 simple orthorhombic supercell.


 Subroutine GETGRP returns: Found  2 space group operations
 (whereof  2 operations were pure point group operations)
 out of a pool of  8 trial point group operations.


The dynamic configuration has the point symmetry C_1h.


Analysis of constrained symmetry for selective dynamics:
=====================================================================
 Subroutine PRICEL returns:
 Original cell was already a primitive cell.
 

 Routine SETGRP: Setting up the symmetry group for a 
 simple orthorhombic supercell.


 Subroutine GETGRP returns: Found  2 space group operations
 (whereof  2 operations were pure point group operations)
 out of a pool of  8 trial point group operations.


The constrained configuration has the point symmetry C_1h.


Analysis of structural, dynamic, and magnetic symmetry:
=====================================================================
 Subroutine PRICEL returns:
 Original cell was already a primitive cell.
 

 Routine SETGRP: Setting up the symmetry group for a 
 simple orthorhombic supercell.


 Subroutine GETGRP returns: Found  2 space group operations
 (whereof  2 operations were pure point group operations)
 out of a pool of  8 trial point group operations.


The magnetic configuration has the point symmetry C_1h.


 Subroutine INISYM returns: Found  2 space group operations
 (whereof  2 operations are pure point group operations),
 and found     1 'primitive' translations

 
 KPOINTS: Automatic mesh                          

Automatic generation of k-mesh.
Space group operators:
 irot       det(A)        alpha          n_x          n_y          n_z        tau_x        tau_y        tau_z
    1     1.000000     0.000001     1.000000     0.000000     0.000000     0.000000     0.000000     0.000000
    2    -1.000000   180.000000     0.000000     1.000000     0.000000     0.000000     0.000000     0.000000
 
 Subroutine IBZKPT returns following result:
 ===========================================
 
 Found      4 irreducible k-points:
 
 Following reciprocal coordinates:
            Coordinates               Weight
  0.000000  0.000000  0.000000      1.000000
  0.333333  0.000000  0.000000      2.000000
  0.000000  0.333333  0.000000      2.000000
  0.333333  0.333333  0.000000      4.000000
 
 Following cartesian coordinates:
            Coordinates               Weight
  0.000000  0.000000  0.000000      1.000000
  0.026024  0.000000  0.000000      2.000000
  0.000000  0.051518  0.000000      2.000000
  0.026024  0.051518  0.000000      4.000000
 
     LOOP+:  cpu time  121.9405: real time  122.3498
    4ORBIT:  cpu time    0.0000: real time    0.0000

 total amount of memory used by VASP MPI-rank0   179680. kBytes
=======================================================================

   base      :      30000. kBytes
   nonlr-proj:      19854. kBytes
   fftplans  :       4196. kBytes
   grid      :      37119. kBytes
   one-center:       3110. kBytes
   wavefun   :      85401. kBytes
 
  
  
 General timing and accounting informations for this job:
 ========================================================
  
                  Total CPU time used (sec):     3644.810
                            User time (sec):     3576.438
                          System time (sec):       68.372
                         Elapsed time (sec):     3658.998
  
                   Maximum memory used (kb):      446076.
                   Average memory used (kb):           0.
  
                          Minor page faults:      2320814
                          Major page faults:            6
                 Voluntary context switches:         8181
