 running on   40 total cores
 distrk:  each k-point on   40 cores,    1 groups
 distr:  one band on    1 cores,   40 groups
 using from now: INCAR     
 vasp.5.4.4.18Apr17-6-g9f103f2a35 (build Feb 25 2019 10:51:38) complex          
  
 POSCAR found type information on POSCAR  Ir O  Ir O 
 POSCAR found :  4 types and     100 ions
 scaLAPACK will be used

 ----------------------------------------------------------------------------- 
|                                                                             |
|           W    W    AA    RRRRR   N    N  II  N    N   GGGG   !!!           |
|           W    W   A  A   R    R  NN   N  II  NN   N  G    G  !!!           |
|           W    W  A    A  R    R  N N  N  II  N N  N  G       !!!           |
|           W WW W  AAAAAA  RRRRR   N  N N  II  N  N N  G  GGG   !            |
|           WW  WW  A    A  R   R   N   NN  II  N   NN  G    G                |
|           W    W  A    A  R    R  N    N  II  N    N   GGGG   !!!           |
|                                                                             |
|      For optimal performance we recommend to set                            |
|        NCORE= 4 - approx SQRT( number of cores)                             |
|      NCORE specifies how many cores store one orbital (NPAR=cpu/NCORE).     |
|      This setting can  greatly improve the performance of VASP for DFT.     |
|      The default,   NCORE=1            might be grossly inefficient         |
|      on modern multi-core architectures or massively parallel machines.     |
|      Do your own testing !!!!                                               |
|      Unfortunately you need to use the default for GW and RPA calculations. |
|      (for HF NCORE is supported but not extensively tested yet)             |
|                                                                             |
 ----------------------------------------------------------------------------- 


 ----------------------------------------------------------------------------- 
|                                                                             |
|  ADVICE TO THIS USER RUNNING 'VASP/VAMP'   (HEAR YOUR MASTER'S VOICE ...):  |
|                                                                             |
|      You enforced a specific xc-type in the INCAR file,                     |
|      a different type was found on the POTCAR file                          |
|          I HOPE YOU KNOW, WHAT YOU ARE  DOING                               |
|                                                                             |
 ----------------------------------------------------------------------------- 

 LDA part: xc-table for Pade appr. of Perdew
 POSCAR found type information on POSCAR  Ir O  Ir O 
 POSCAR found :  4 types and     100 ions
 POSCAR, INCAR and KPOINTS ok, starting setup
 FFT: planning ...
 WAVECAR not read
 WARNING: random wavefunctions but no delay for mixing, default for NELMDL
 entering main loop
       N       E                     dE             d eps       ncg     rms          rms(c)
DAV:   1     0.740870955643E+04    0.74087E+04   -0.31284E+05  7680   0.128E+03
DAV:   2     0.355436710403E+03   -0.70533E+04   -0.64293E+04  8000   0.368E+02
DAV:   3    -0.731993910746E+03   -0.10874E+04   -0.10401E+04  9840   0.152E+02
DAV:   4    -0.774941399545E+03   -0.42947E+02   -0.42275E+02  9280   0.337E+01
DAV:   5    -0.776129323362E+03   -0.11879E+01   -0.11859E+01  9840   0.539E+00    0.176E+02
RMM:   6    -0.675347393606E+03    0.10078E+03   -0.67954E+02  7691   0.365E+01    0.130E+02
RMM:   7    -0.114829248103E+04   -0.47295E+03   -0.38334E+02  7891   0.203E+01    0.333E+02
RMM:   8    -0.914768747897E+03    0.23352E+03   -0.30775E+01  7734   0.103E+01    0.260E+02
RMM:   9    -0.984291654023E+03   -0.69523E+02   -0.98979E+01  7682   0.137E+01    0.290E+02
RMM:  10    -0.769375944809E+03    0.21492E+03   -0.58117E+01  7734   0.103E+01    0.139E+02
RMM:  11    -0.633352081552E+03    0.13602E+03   -0.78615E+01  7681   0.118E+01    0.552E+01
RMM:  12    -0.664876270706E+03   -0.31524E+02   -0.28136E+01  7712   0.729E+00    0.795E+01
RMM:  13    -0.616631485239E+03    0.48245E+02   -0.66594E+00  7687   0.401E+00    0.382E+01
RMM:  14    -0.615561038161E+03    0.10704E+01   -0.36460E+00  7703   0.274E+00    0.398E+01
RMM:  15    -0.614588648833E+03    0.97239E+00   -0.15821E+00  7686   0.191E+00    0.265E+01
RMM:  16    -0.614383538884E+03    0.20511E+00   -0.11589E+00  7681   0.167E+00    0.245E+01
RMM:  17    -0.616577673285E+03   -0.21941E+01   -0.90034E-01  7680   0.137E+00    0.230E+01
RMM:  18    -0.620712381278E+03   -0.41347E+01   -0.15049E+00  7680   0.174E+00    0.237E+01
RMM:  19    -0.625653649620E+03   -0.49413E+01   -0.44013E+00  7680   0.309E+00    0.147E+01
RMM:  20    -0.628748487031E+03   -0.30948E+01   -0.15981E+00  7680   0.195E+00    0.126E+01
RMM:  21    -0.629753743456E+03   -0.10053E+01   -0.32491E-01  7687   0.775E-01    0.126E+01
RMM:  22    -0.630431865282E+03   -0.67812E+00   -0.15717E-01  7684   0.521E-01    0.116E+01
RMM:  23    -0.631076923923E+03   -0.64506E+00   -0.14651E-01  7680   0.537E-01    0.103E+01
RMM:  24    -0.632707653669E+03   -0.16307E+01   -0.41910E-01  7680   0.866E-01    0.952E+00
RMM:  25    -0.633654860902E+03   -0.94721E+00   -0.29174E-01  7680   0.659E-01    0.881E+00
RMM:  26    -0.634112573088E+03   -0.45771E+00   -0.15764E-01  7680   0.531E-01    0.849E+00
RMM:  27    -0.635013906634E+03   -0.90133E+00   -0.24056E-01  7680   0.625E-01    0.901E+00
RMM:  28    -0.635566485030E+03   -0.55258E+00   -0.21532E-01  7680   0.611E-01    0.783E+00
RMM:  29    -0.635700510234E+03   -0.13403E+00   -0.11132E-01  7680   0.462E-01    0.627E+00
RMM:  30    -0.636055037921E+03   -0.35453E+00   -0.10373E-01  7680   0.415E-01    0.524E+00
RMM:  31    -0.636236598691E+03   -0.18156E+00   -0.75806E-02  7680   0.354E-01    0.415E+00
RMM:  32    -0.636279517053E+03   -0.42918E-01   -0.56579E-02  7680   0.303E-01    0.336E+00
RMM:  33    -0.636265248762E+03    0.14268E-01   -0.34049E-02  7680   0.236E-01    0.295E+00
RMM:  34    -0.636263740391E+03    0.15084E-02   -0.46049E-02  7680   0.266E-01    0.258E+00
RMM:  35    -0.636362066897E+03   -0.98327E-01   -0.33569E-02  7680   0.228E-01    0.216E+00
RMM:  36    -0.636428996593E+03   -0.66930E-01   -0.17644E-02  7681   0.163E-01    0.190E+00
RMM:  37    -0.636494889591E+03   -0.65893E-01   -0.95617E-03  7680   0.118E-01    0.167E+00
RMM:  38    -0.636560190922E+03   -0.65301E-01   -0.51610E-03  7680   0.879E-02    0.143E+00
RMM:  39    -0.636645934756E+03   -0.85744E-01   -0.71176E-03  7680   0.104E-01    0.119E+00
RMM:  40    -0.636721509021E+03   -0.75574E-01   -0.53138E-03  7680   0.930E-02    0.988E-01
RMM:  41    -0.636795396997E+03   -0.73888E-01   -0.35023E-03  7680   0.787E-02    0.763E-01
RMM:  42    -0.636865184021E+03   -0.69787E-01   -0.29253E-03  7680   0.731E-02    0.602E-01
RMM:  43    -0.636906081153E+03   -0.40897E-01   -0.12580E-03  7685   0.490E-02    0.534E-01
RMM:  44    -0.636945291785E+03   -0.39211E-01   -0.11630E-03  7680   0.465E-02    0.449E-01
RMM:  45    -0.636988420176E+03   -0.43128E-01   -0.15014E-03  7680   0.539E-02    0.385E-01
RMM:  46    -0.637033923122E+03   -0.45503E-01   -0.18708E-03  7680   0.599E-02    0.315E-01
RMM:  47    -0.637072607006E+03   -0.38684E-01   -0.17035E-03  7680   0.542E-02    0.224E-01
RMM:  48    -0.637102732059E+03   -0.30125E-01   -0.10963E-03  7680   0.432E-02    0.180E-01
RMM:  49    -0.637123392901E+03   -0.20661E-01   -0.67652E-04  7681   0.333E-02    0.152E-01
RMM:  50    -0.637134219773E+03   -0.10827E-01   -0.45377E-04  7686   0.259E-02    0.111E-01
RMM:  51    -0.637149441836E+03   -0.15222E-01   -0.74156E-04  7680   0.331E-02    0.117E-01
RMM:  52    -0.637154951770E+03   -0.55099E-02   -0.23749E-04  7688   0.193E-02    0.106E-01
RMM:  53    -0.637160178513E+03   -0.52267E-02   -0.24068E-04  7679   0.178E-02    0.113E-01
RMM:  54    -0.637162631873E+03   -0.24534E-02   -0.11913E-04  7638   0.135E-02    0.111E-01
RMM:  55    -0.637165379574E+03   -0.27477E-02   -0.24468E-04  7678   0.189E-02    0.120E-01
RMM:  56    -0.637166318504E+03   -0.93893E-03   -0.12744E-04  7640   0.142E-02    0.116E-01
RMM:  57    -0.637166544194E+03   -0.22569E-03   -0.38466E-05  7190   0.832E-03    0.116E-01
RMM:  58    -0.637166281617E+03    0.26258E-03   -0.39171E-05  7316   0.107E-02    0.115E-01
RMM:  59    -0.637166452143E+03   -0.17053E-03   -0.51102E-06  5966   0.475E-03    0.113E-01
RMM:  60    -0.637167445430E+03   -0.99329E-03   -0.32966E-04  7677   0.255E-02
   1 F= -.63716745E+03 E0= -.63713312E+03  d E =-.686599E-01  mag=     1.6717

 ----------------------------------------------------------------------------- 
|                                                                             |
|           W    W    AA    RRRRR   N    N  II  N    N   GGGG   !!!           |
|           W    W   A  A   R    R  NN   N  II  NN   N  G    G  !!!           |
|           W    W  A    A  R    R  N N  N  II  N N  N  G       !!!           |
|           W WW W  AAAAAA  RRRRR   N  N N  II  N  N N  G  GGG   !            |
|           WW  WW  A    A  R   R   N   NN  II  N   NN  G    G                |
|           W    W  A    A  R    R  N    N  II  N    N   GGGG   !!!           |
|                                                                             |
|      Your timestep is larger than 0.1 Angst.                                |
|      For finite differences this really does not make sense. I will         |
|      reset POTIM to 0.015. I recommend to use 0.01 to 0.02 for finite       |
|      differences.                                                           |
|                                                                             |
 ----------------------------------------------------------------------------- 

 Finite differences POTIM= 0.01500 DOF=   6
 bond charge predicted
       N       E                     dE             d eps       ncg     rms          rms(c)
DAV:   1    -0.637166920402E+03   -0.46826E-03   -0.11212E+00  8200   0.133E+00    0.312E-01
RMM:   2    -0.637166498723E+03    0.42168E-03   -0.10472E-02  7680   0.141E-01    0.310E-01
RMM:   3    -0.637165701404E+03    0.79732E-03   -0.10393E-03  7685   0.471E-02    0.213E-01
RMM:   4    -0.637167517488E+03   -0.18161E-02   -0.41710E-04  7680   0.308E-02    0.165E-01
RMM:   5    -0.637167441080E+03    0.76408E-04   -0.26609E-04  7680   0.244E-02    0.115E-01
RMM:   6    -0.637167323753E+03    0.11733E-03   -0.16784E-04  7682   0.173E-02    0.985E-02
RMM:   7    -0.637166611212E+03    0.71254E-03   -0.57565E-05  7615   0.112E-02    0.685E-02
RMM:   8    -0.637166612944E+03   -0.17321E-05   -0.28688E-05  7239   0.693E-03    0.537E-02
RMM:   9    -0.637166709695E+03   -0.96751E-04   -0.15923E-05  6953   0.548E-03    0.445E-02
RMM:  10    -0.637166675157E+03    0.34538E-04   -0.16333E-05  6944   0.506E-03    0.395E-02
RMM:  11    -0.637166733440E+03   -0.58282E-04   -0.20722E-05  7043   0.589E-03    0.331E-02
RMM:  12    -0.637166212466E+03    0.52097E-03   -0.26240E-05  7440   0.693E-03    0.242E-02
RMM:  13    -0.637166268855E+03   -0.56389E-04   -0.97201E-06  6381   0.439E-03    0.206E-02
RMM:  14    -0.637166617399E+03   -0.34854E-03   -0.16038E-05  6788   0.483E-03    0.171E-02
RMM:  15    -0.637166938865E+03   -0.32147E-03   -0.16254E-05  6818   0.494E-03    0.137E-02
RMM:  16    -0.637167222948E+03   -0.28408E-03   -0.10586E-05  6394   0.402E-03    0.104E-02
RMM:  17    -0.637167544327E+03   -0.32138E-03   -0.29506E-06  5290   0.269E-03    0.888E-03
RMM:  18    -0.637167888646E+03   -0.34432E-03   -0.60550E-06  5905   0.308E-03    0.557E-03
RMM:  19    -0.637168103157E+03   -0.21451E-03   -0.36457E-06  5374   0.236E-03    0.376E-03
RMM:  20    -0.637168249724E+03   -0.14657E-03   -0.18280E-06  4956   0.166E-03    0.323E-03
RMM:  21    -0.637168358624E+03   -0.10890E-03   -0.92743E-07  4715   0.128E-03    0.271E-03
RMM:  22    -0.637168413307E+03   -0.54683E-04   -0.61998E-07  4541   0.126E-03    0.208E-03
RMM:  23    -0.637168475686E+03   -0.62379E-04   -0.36185E-07  4107   0.744E-04    0.150E-03
RMM:  24    -0.637168511165E+03   -0.35480E-04   -0.22237E-07  3811   0.592E-04    0.135E-03
RMM:  25    -0.637168537984E+03   -0.26819E-04   -0.24451E-07  4124   0.626E-04    0.107E-03
RMM:  26    -0.637168551973E+03   -0.13989E-04   -0.22606E-07  4039   0.620E-04    0.883E-04
RMM:  27    -0.637168554495E+03   -0.25217E-05   -0.88047E-08  3162   0.489E-04    0.576E-04
RMM:  28    -0.637168558606E+03   -0.41113E-05   -0.66291E-08  2949   0.385E-04    0.370E-04
RMM:  29    -0.637168560354E+03   -0.17476E-05   -0.33001E-08  2423   0.330E-04    0.247E-04
RMM:  30    -0.637168561120E+03   -0.76600E-06   -0.18650E-08  2041   0.286E-04
   2 F= -.63716856E+03 E0= -.63713436E+03  d E =-.683935E-01  mag=     1.4988
 Finite differences progress:
  Degree of freedom:   1/  6
  Displacement:        1/  2
  Total:               1/ 12
 bond charge predicted
       N       E                     dE             d eps       ncg     rms          rms(c)
DAV:   1    -0.637170396732E+03   -0.18364E-02   -0.45128E+00  8080   0.267E+00    0.584E-01
RMM:   2    -0.637165064679E+03    0.53321E-02   -0.29818E-02  7680   0.267E-01    0.157E-01
RMM:   3    -0.637168537524E+03   -0.34728E-02   -0.20320E-03  7692   0.957E-02    0.859E-02
RMM:   4    -0.637168388407E+03    0.14912E-03   -0.31704E-04  7702   0.274E-02    0.610E-02
RMM:   5    -0.637168329390E+03    0.59017E-04   -0.77320E-05  7639   0.124E-02    0.496E-02
RMM:   6    -0.637168432949E+03   -0.10356E-03   -0.17496E-04  7660   0.173E-02    0.438E-02
RMM:   7    -0.637168541028E+03   -0.10808E-03   -0.51282E-04  7680   0.299E-02    0.275E-02
RMM:   8    -0.637168759714E+03   -0.21869E-03   -0.72997E-05  7467   0.157E-02    0.247E-02
RMM:   9    -0.637168875615E+03   -0.11590E-03   -0.15288E-04  7610   0.151E-02    0.200E-02
RMM:  10    -0.637169038936E+03   -0.16332E-03   -0.49225E-05  7293   0.101E-02    0.134E-02
RMM:  11    -0.637169094944E+03   -0.56008E-04   -0.11350E-05  6580   0.546E-03    0.798E-03
RMM:  12    -0.637169137659E+03   -0.42715E-04   -0.19621E-06  5075   0.242E-03    0.617E-03
RMM:  13    -0.637169125105E+03    0.12554E-04   -0.54695E-06  5801   0.315E-03    0.528E-03
RMM:  14    -0.637169151995E+03   -0.26891E-04   -0.57849E-06  6051   0.423E-03    0.517E-03
RMM:  15    -0.637169159698E+03   -0.77025E-05   -0.13656E-06  4769   0.225E-03    0.274E-03
RMM:  16    -0.637169164314E+03   -0.46159E-05   -0.20122E-07  4161   0.791E-04    0.302E-03
RMM:  17    -0.637169167647E+03   -0.33334E-05   -0.27677E-07  4228   0.778E-04    0.220E-03
RMM:  18    -0.637169171717E+03   -0.40700E-05   -0.10533E-06  4545   0.139E-03    0.159E-03
RMM:  19    -0.637169175822E+03   -0.41045E-05   -0.24577E-07  4228   0.847E-04    0.123E-03
RMM:  20    -0.637169176954E+03   -0.11317E-05   -0.79129E-08  3357   0.513E-04    0.910E-04
RMM:  21    -0.637169177743E+03   -0.78919E-06   -0.31739E-08  2542   0.346E-04
   3 F= -.63716918E+03 E0= -.63713492E+03  d E =-.685200E-01  mag=     1.5237
 Finite differences progress:
  Degree of freedom:   1/  6
  Displacement:        2/  2
  Total:               2/ 12
 bond charge predicted
       N       E                     dE             d eps       ncg     rms          rms(c)
DAV:   1    -0.637168347439E+03    0.82951E-03   -0.23555E+00  9720   0.192E+00    0.336E-01
RMM:   2    -0.637168242481E+03    0.10496E-03   -0.90220E-03  9544   0.145E-01    0.897E-02
RMM:   3    -0.637167707591E+03    0.53489E-03   -0.90319E-04  9623   0.450E-02    0.685E-02
RMM:   4    -0.637168257013E+03   -0.54942E-03   -0.12090E-04  9574   0.212E-02    0.320E-02
RMM:   5    -0.637168398506E+03   -0.14149E-03   -0.13301E-04  9568   0.166E-02    0.211E-02
RMM:   6    -0.637168429544E+03   -0.31038E-04   -0.16392E-05  8577   0.691E-03    0.139E-02
RMM:   7    -0.637168429301E+03    0.24322E-06   -0.34226E-06  7005   0.391E-03
   4 F= -.63716843E+03 E0= -.63713418E+03  d E =-.684916E-01  mag=     1.5142
 Finite differences progress:
  Degree of freedom:   2/  6
  Displacement:        1/  2
  Total:               3/ 12
 bond charge predicted
       N       E                     dE             d eps       ncg     rms          rms(c)
DAV:   1    -0.637167288154E+03    0.11414E-02   -0.38469E+00  9880   0.213E+00    0.299E-01
RMM:   2    -0.637167988972E+03   -0.70082E-03   -0.12328E-02  9536   0.152E-01    0.582E-02
RMM:   3    -0.637168008854E+03   -0.19882E-04   -0.67404E-04  9756   0.295E-02    0.312E-02
RMM:   4    -0.637168292400E+03   -0.28355E-03   -0.33934E-05  8724   0.806E-03    0.230E-02
RMM:   5    -0.637168409670E+03   -0.11727E-03   -0.15599E-05  8513   0.545E-03    0.171E-02
RMM:   6    -0.637168385650E+03    0.24020E-04   -0.49256E-06  7570   0.413E-03    0.114E-02
RMM:   7    -0.637168416807E+03   -0.31157E-04   -0.13159E-06  5990   0.202E-03    0.599E-03
RMM:   8    -0.637168422915E+03   -0.61073E-05   -0.45100E-07  5672   0.131E-03    0.406E-03
RMM:   9    -0.637168420386E+03    0.25283E-05   -0.14429E-07  5136   0.757E-04    0.313E-03
RMM:  10    -0.637168417582E+03    0.28045E-05   -0.36865E-07  5300   0.100E-03    0.211E-03
RMM:  11    -0.637168429133E+03   -0.11551E-04   -0.15547E-07  4836   0.619E-04    0.129E-03
RMM:  12    -0.637168436714E+03   -0.75811E-05   -0.11669E-07  4770   0.639E-04    0.935E-04
RMM:  13    -0.637168438422E+03   -0.17080E-05   -0.18541E-08  2785   0.303E-04    0.666E-04
RMM:  14    -0.637168439614E+03   -0.11924E-05   -0.49318E-09  1956   0.239E-04    0.489E-04
RMM:  15    -0.637168443620E+03   -0.40062E-05   -0.28223E-08  3012   0.312E-04    0.420E-04
RMM:  16    -0.637168445581E+03   -0.19608E-05   -0.18614E-08  2555   0.284E-04    0.362E-04
RMM:  17    -0.637168446147E+03   -0.56605E-06   -0.85764E-09  2119   0.266E-04
   5 F= -.63716845E+03 E0= -.63713422E+03  d E =-.684553E-01  mag=     1.5111
 Finite differences progress:
  Degree of freedom:   2/  6
  Displacement:        2/  2
  Total:               4/ 12
 bond charge predicted
       N       E                     dE             d eps       ncg     rms          rms(c)
DAV:   1    -0.637165596666E+03    0.28489E-02   -0.24339E+00  7680   0.196E+00    0.416E-01
RMM:   2    -0.637160858708E+03    0.47380E-02   -0.16851E-02  7680   0.196E-01    0.588E-01
RMM:   3    -0.637164857014E+03   -0.39983E-02   -0.17918E-03  7688   0.683E-02    0.300E-01
RMM:   4    -0.637163038888E+03    0.18181E-02   -0.76487E-04  7697   0.369E-02    0.185E-01
RMM:   5    -0.637163993555E+03   -0.95467E-03   -0.52160E-04  7680   0.313E-02    0.118E-01
RMM:   6    -0.637164675227E+03   -0.68167E-03   -0.94747E-04  7680   0.465E-02    0.849E-02
RMM:   7    -0.637164392202E+03    0.28302E-03   -0.52072E-04  7675   0.293E-02    0.495E-02
RMM:   8    -0.637164905647E+03   -0.51344E-03   -0.25573E-04  7680   0.212E-02    0.402E-02
RMM:   9    -0.637165148216E+03   -0.24257E-03   -0.77094E-05  7622   0.131E-02    0.273E-02
RMM:  10    -0.637165198923E+03   -0.50706E-04   -0.28004E-05  7155   0.728E-03    0.185E-02
RMM:  11    -0.637165283523E+03   -0.84601E-04   -0.57844E-06  6109   0.464E-03    0.155E-02
RMM:  12    -0.637165636285E+03   -0.35276E-03   -0.34710E-06  5379   0.227E-03    0.117E-02
RMM:  13    -0.637165772845E+03   -0.13656E-03   -0.16042E-06  4930   0.184E-03    0.107E-02
RMM:  14    -0.637165822754E+03   -0.49909E-04   -0.53770E-06  5857   0.334E-03    0.808E-03
RMM:  15    -0.637165860825E+03   -0.38070E-04   -0.38558E-06  5491   0.260E-03    0.639E-03
RMM:  16    -0.637165861729E+03   -0.90407E-06   -0.19668E-06  5037   0.225E-03
   6 F= -.63716586E+03 E0= -.63713158E+03  d E =-.685571E-01  mag=     1.5179
 Finite differences progress:
  Degree of freedom:   3/  6
  Displacement:        1/  2
  Total:               5/ 12
 bond charge predicted
       N       E                     dE             d eps       ncg     rms          rms(c)
DAV:   1    -0.637165955403E+03   -0.94579E-04   -0.48456E+00  8040   0.273E+00    0.823E-01
RMM:   2    -0.637165612169E+03    0.34323E-03   -0.29082E-02  7680   0.223E-01    0.109E-01
RMM:   3    -0.637165815415E+03   -0.20325E-03   -0.22753E-03  8370   0.533E-02    0.614E-02
RMM:   4    -0.637166045263E+03   -0.22985E-03   -0.14328E-04  7907   0.134E-02    0.283E-02
RMM:   5    -0.637166347327E+03   -0.30206E-03   -0.12989E-05  6701   0.512E-03    0.249E-02
RMM:   6    -0.637166389476E+03   -0.42149E-04   -0.19748E-06  5064   0.194E-03    0.208E-02
RMM:   7    -0.637166526026E+03   -0.13655E-03   -0.72491E-06  6374   0.375E-03    0.132E-02
RMM:   8    -0.637166623401E+03   -0.97375E-04   -0.39619E-06  5756   0.289E-03    0.560E-03
RMM:   9    -0.637166645435E+03   -0.22034E-04   -0.25940E-06  5256   0.260E-03    0.384E-03
RMM:  10    -0.637166652415E+03   -0.69800E-05   -0.52900E-07  4564   0.135E-03    0.326E-03
RMM:  11    -0.637166652324E+03    0.90920E-07   -0.20968E-07  4019   0.830E-04
   7 F= -.63716665E+03 E0= -.63713248E+03  d E =-.683369E-01  mag=     1.5141
 Finite differences progress:
  Degree of freedom:   3/  6
  Displacement:        2/  2
  Total:               6/ 12
 bond charge predicted
       N       E                     dE             d eps       ncg     rms          rms(c)
DAV:   1    -0.637169259134E+03   -0.26067E-02   -0.23228E+00  8120   0.192E+00    0.534E-01
RMM:   2    -0.637163343722E+03    0.59154E-02   -0.20319E-02  7680   0.191E-01    0.263E-01
RMM:   3    -0.637168210199E+03   -0.48665E-02   -0.18271E-03  7787   0.568E-02    0.149E-01
RMM:   4    -0.637168833541E+03   -0.62334E-03   -0.75979E-04  7680   0.408E-02    0.122E-01
RMM:   5    -0.637168247895E+03    0.58565E-03   -0.33515E-04  7680   0.310E-02    0.756E-02
RMM:   6    -0.637168589186E+03   -0.34129E-03   -0.42450E-05  7657   0.105E-02    0.348E-02
RMM:   7    -0.637168770739E+03   -0.18155E-03   -0.18700E-05  7252   0.669E-03    0.252E-02
RMM:   8    -0.637168863654E+03   -0.92915E-04   -0.95777E-06  6733   0.424E-03    0.186E-02
RMM:   9    -0.637168956162E+03   -0.92508E-04   -0.57498E-06  6011   0.328E-03    0.138E-02
RMM:  10    -0.637168988555E+03   -0.32393E-04   -0.33018E-06  5347   0.260E-03    0.875E-03
RMM:  11    -0.637169018233E+03   -0.29678E-04   -0.18186E-06  5014   0.200E-03    0.606E-03
RMM:  12    -0.637169027206E+03   -0.89728E-05   -0.14693E-06  4865   0.212E-03    0.524E-03
RMM:  13    -0.637169065340E+03   -0.38135E-04   -0.99316E-07  4718   0.142E-03    0.275E-03
RMM:  14    -0.637169076629E+03   -0.11289E-04   -0.32105E-07  4259   0.832E-04    0.198E-03
RMM:  15    -0.637169085724E+03   -0.90945E-05   -0.54163E-07  4423   0.105E-03    0.147E-03
RMM:  16    -0.637169091511E+03   -0.57871E-05   -0.15522E-07  3921   0.717E-04    0.131E-03
RMM:  17    -0.637169095039E+03   -0.35285E-05   -0.93086E-08  3385   0.460E-04    0.102E-03
RMM:  18    -0.637169099911E+03   -0.48719E-05   -0.70225E-08  3412   0.429E-04    0.862E-04
RMM:  19    -0.637169102123E+03   -0.22117E-05   -0.44800E-08  2728   0.337E-04    0.630E-04
RMM:  20    -0.637169105011E+03   -0.28888E-05   -0.34616E-08  2538   0.328E-04    0.500E-04
RMM:  21    -0.637169106663E+03   -0.16515E-05   -0.29903E-08  2360   0.314E-04    0.370E-04
RMM:  22    -0.637169107523E+03   -0.85995E-06   -0.26370E-08  2285   0.308E-04
   8 F= -.63716911E+03 E0= -.63713485E+03  d E =-.685098E-01  mag=     1.5241
 Finite differences progress:
  Degree of freedom:   4/  6
  Displacement:        1/  2
  Total:               7/ 12
 bond charge predicted
       N       E                     dE             d eps       ncg     rms          rms(c)
DAV:   1    -0.637170181823E+03   -0.10752E-02   -0.44845E+00  7680   0.264E+00    0.591E-01
RMM:   2    -0.637168276193E+03    0.19056E-02   -0.20300E-02  7679   0.204E-01    0.116E-01
RMM:   3    -0.637168956482E+03   -0.68029E-03   -0.96738E-04  7898   0.452E-02    0.522E-02
RMM:   4    -0.637168894500E+03    0.61982E-04   -0.92910E-05  7635   0.132E-02    0.375E-02
RMM:   5    -0.637168949649E+03   -0.55148E-04   -0.17065E-05  6920   0.544E-03    0.301E-02
RMM:   6    -0.637168971328E+03   -0.21679E-04   -0.89714E-06  6632   0.500E-03    0.230E-02
RMM:   7    -0.637168907848E+03    0.63480E-04   -0.39987E-06  5742   0.322E-03    0.147E-02
RMM:   8    -0.637168922043E+03   -0.14196E-04   -0.11650E-06  4727   0.189E-03    0.884E-03
RMM:   9    -0.637168955341E+03   -0.33298E-04   -0.47426E-07  4460   0.131E-03    0.672E-03
RMM:  10    -0.637168951541E+03    0.38003E-05   -0.36330E-07  4330   0.934E-04    0.408E-03
RMM:  11    -0.637168987229E+03   -0.35688E-04   -0.20961E-07  4119   0.711E-04    0.253E-03
RMM:  12    -0.637168995521E+03   -0.82914E-05   -0.15294E-07  3874   0.564E-04    0.171E-03
RMM:  13    -0.637169008852E+03   -0.13332E-04   -0.81044E-08  3256   0.446E-04    0.128E-03
RMM:  14    -0.637169021454E+03   -0.12602E-04   -0.14784E-07  3899   0.535E-04    0.103E-03
RMM:  15    -0.637169032670E+03   -0.11216E-04   -0.49767E-08  2737   0.380E-04    0.768E-04
RMM:  16    -0.637169043060E+03   -0.10389E-04   -0.51107E-08  2915   0.362E-04    0.568E-04
RMM:  17    -0.637169053912E+03   -0.10853E-04   -0.53694E-08  2731   0.344E-04    0.546E-04
RMM:  18    -0.637169061404E+03   -0.74914E-05   -0.54940E-08  2812   0.349E-04    0.395E-04
RMM:  19    -0.637169064719E+03   -0.33151E-05   -0.29937E-08  2316   0.315E-04    0.411E-04
RMM:  20    -0.637169066729E+03   -0.20098E-05   -0.19334E-08  2018   0.288E-04    0.294E-04
RMM:  21    -0.637169069109E+03   -0.23802E-05   -0.28289E-08  2328   0.301E-04    0.347E-04
RMM:  22    -0.637169069878E+03   -0.76954E-06   -0.13465E-08  1935   0.280E-04
   9 F= -.63716907E+03 E0= -.63713487E+03  d E =-.684035E-01  mag=     1.4979
 Finite differences progress:
  Degree of freedom:   4/  6
  Displacement:        2/  2
  Total:               8/ 12
 bond charge predicted
       N       E                     dE             d eps       ncg     rms          rms(c)
DAV:   1    -0.637168529701E+03    0.53941E-03   -0.23613E+00  9600   0.194E+00    0.332E-01
RMM:   2    -0.637168280965E+03    0.24874E-03   -0.84435E-03  9512   0.142E-01    0.864E-02
RMM:   3    -0.637168196594E+03    0.84372E-04   -0.50987E-04  9765   0.300E-02    0.494E-02
RMM:   4    -0.637168313318E+03   -0.11672E-03   -0.58687E-05  9381   0.120E-02    0.354E-02
RMM:   5    -0.637168485352E+03   -0.17203E-03   -0.16504E-05  8684   0.523E-03    0.174E-02
RMM:   6    -0.637168539244E+03   -0.53892E-04   -0.43269E-06  7460   0.323E-03    0.974E-03
RMM:   7    -0.637168559023E+03   -0.19779E-04   -0.12278E-06  6049   0.169E-03    0.553E-03
RMM:   8    -0.637168580939E+03   -0.21916E-04   -0.95016E-07  5901   0.146E-03    0.452E-03
RMM:   9    -0.637168578445E+03    0.24940E-05   -0.44570E-07  5501   0.119E-03    0.213E-03
RMM:  10    -0.637168586736E+03   -0.82905E-05   -0.19952E-07  5060   0.744E-04    0.176E-03
RMM:  11    -0.637168588615E+03   -0.18786E-05   -0.65888E-08  4405   0.506E-04    0.986E-04
RMM:  12    -0.637168588999E+03   -0.38469E-06   -0.27967E-08  2985   0.327E-04
  10 F= -.63716859E+03 E0= -.63713436E+03  d E =-.684536E-01  mag=     1.5105
 Finite differences progress:
  Degree of freedom:   5/  6
  Displacement:        1/  2
  Total:               9/ 12
 bond charge predicted
       N       E                     dE             d eps       ncg     rms          rms(c)
DAV:   1    -0.637167601502E+03    0.98711E-03   -0.38483E+00  9840   0.212E+00    0.297E-01
RMM:   2    -0.637168212854E+03   -0.61135E-03   -0.10958E-02  9534   0.143E-01    0.639E-02
RMM:   3    -0.637168478664E+03   -0.26581E-03   -0.58167E-04  9766   0.279E-02    0.353E-02
RMM:   4    -0.637168547049E+03   -0.68386E-04   -0.34202E-05  8712   0.783E-03    0.305E-02
RMM:   5    -0.637168555392E+03   -0.83425E-05   -0.47502E-06  6971   0.270E-03    0.232E-02
RMM:   6    -0.637168552548E+03    0.28441E-05   -0.27833E-06  6804   0.255E-03    0.134E-02
RMM:   7    -0.637168478507E+03    0.74041E-04   -0.18403E-06  6347   0.224E-03    0.576E-03
RMM:   8    -0.637168544286E+03   -0.65779E-04   -0.56130E-07  5643   0.139E-03    0.438E-03
RMM:   9    -0.637168555843E+03   -0.11557E-04   -0.19629E-07  5042   0.778E-04    0.343E-03
RMM:  10    -0.637168567609E+03   -0.11766E-04   -0.23048E-07  5048   0.640E-04    0.252E-03
RMM:  11    -0.637168585369E+03   -0.17760E-04   -0.28372E-07  5052   0.603E-04    0.189E-03
RMM:  12    -0.637168585226E+03    0.14358E-06   -0.78836E-08  3772   0.437E-04
  11 F= -.63716859E+03 E0= -.63713436E+03  d E =-.684549E-01  mag=     1.5138
 Finite differences progress:
  Degree of freedom:   5/  6
  Displacement:        2/  2
  Total:              10/ 12
 bond charge predicted
       N       E                     dE             d eps       ncg     rms          rms(c)
DAV:   1    -0.637165863724E+03    0.27216E-02   -0.24336E+00  7680   0.196E+00    0.412E-01
RMM:   2    -0.637166497642E+03   -0.63392E-03   -0.13261E-02  7680   0.167E-01    0.558E-01
RMM:   3    -0.637157686336E+03    0.88113E-02   -0.18472E-03  7689   0.569E-02    0.278E-01
RMM:   4    -0.637161656900E+03   -0.39706E-02   -0.60235E-04  7680   0.375E-02    0.226E-01
RMM:   5    -0.637164271476E+03   -0.26146E-02   -0.44283E-04  7680   0.298E-02    0.113E-01
RMM:   6    -0.637165752853E+03   -0.14814E-02   -0.20737E-04  7680   0.192E-02    0.742E-02
RMM:   7    -0.637166009300E+03   -0.25645E-03   -0.54933E-05  7611   0.122E-02    0.683E-02
RMM:   8    -0.637166014122E+03   -0.48220E-05   -0.33773E-05  7419   0.711E-03    0.508E-02
RMM:   9    -0.637166064588E+03   -0.50467E-04   -0.19676E-05  7171   0.572E-03    0.401E-02
RMM:  10    -0.637166169335E+03   -0.10475E-03   -0.11001E-05  6829   0.462E-03    0.323E-02
RMM:  11    -0.637166240945E+03   -0.71610E-04   -0.67828E-06  6426   0.340E-03    0.270E-02
RMM:  12    -0.637166337178E+03   -0.96234E-04   -0.83661E-06  6598   0.354E-03    0.232E-02
RMM:  13    -0.637166378055E+03   -0.40877E-04   -0.39220E-06  5603   0.247E-03    0.175E-02
RMM:  14    -0.637166393109E+03   -0.15054E-04   -0.24376E-06  5198   0.185E-03    0.146E-02
RMM:  15    -0.637166391248E+03    0.18610E-05   -0.77420E-07  4752   0.132E-03    0.124E-02
RMM:  16    -0.637166390730E+03    0.51816E-06   -0.57364E-07  4618   0.984E-04
  12 F= -.63716639E+03 E0= -.63713211E+03  d E =-.685712E-01  mag=     1.5148
 Finite differences progress:
  Degree of freedom:   6/  6
  Displacement:        1/  2
  Total:              11/ 12
 bond charge predicted
       N       E                     dE             d eps       ncg     rms          rms(c)
DAV:   1    -0.637166683106E+03   -0.29186E-03   -0.48453E+00  7800   0.273E+00    0.814E-01
RMM:   2    -0.637165760524E+03    0.92258E-03   -0.28760E-02  7680   0.221E-01    0.971E-02
RMM:   3    -0.637166437265E+03   -0.67674E-03   -0.22302E-03  8330   0.523E-02    0.575E-02
RMM:   4    -0.637167121456E+03   -0.68419E-03   -0.13415E-04  7951   0.125E-02    0.310E-02
RMM:   5    -0.637167133121E+03   -0.11666E-04   -0.16137E-05  6793   0.539E-03    0.240E-02
RMM:   6    -0.637167145436E+03   -0.12314E-04   -0.15590E-06  4982   0.207E-03    0.211E-02
RMM:   7    -0.637167097098E+03    0.48338E-04   -0.24406E-06  5227   0.212E-03    0.149E-02
RMM:   8    -0.637167096260E+03    0.83847E-06   -0.26117E-06  5356   0.228E-03
  13 F= -.63716710E+03 E0= -.63713293E+03  d E =-.683303E-01  mag=     1.5153
 Finite differences progress:
  Degree of freedom:   6/  6
  Displacement:        2/  2
  Total:              12/ 12
 Finite differences POTIM=  1.500000000000000E-002
