<?xml version="1.0" encoding="ISO-8859-1"?>
<modeling>
 <generator>
  <i name="program" type="string">vasp </i>
  <i name="version" type="string">5.4.4.18Apr17-6-g9f103f2a35  </i>
  <i name="subversion" type="string">(build Feb 25 2019 10:51:38) complex            parallel </i>
  <i name="platform" type="string">LinuxIFC </i>
  <i name="date" type="string">2022 11 22 </i>
  <i name="time" type="string">10:09:02 </i>
 </generator>
 <incar>
  <i type="string" name="PREC">normal</i>
  <i type="string" name="ALGO"> Fast</i>
  <i type="int" name="ISPIN">     2</i>
  <i type="int" name="MAXMIX">    60</i>
  <i type="int" name="ICHARG">     2</i>
  <i type="int" name="NELM">    60</i>
  <i type="int" name="NELMIN">     4</i>
  <i type="int" name="IBRION">     5</i>
  <i type="int" name="NFREE">     2</i>
  <i name="EDIFF">      0.00000100</i>
  <i name="EDIFFG">     -0.05000000</i>
  <i type="int" name="NSW">   500</i>
  <i type="int" name="ISIF">     2</i>
  <i name="ENCUT">    500.00000000</i>
  <v name="MAGMOM">      0.60000000      0.60000000      0.60000000      0.60000000      0.60000000      0.60000000      0.60000000      0.60000000      0.60000000      0.60000000      0.60000000      0.60000000      0.60000000      0.60000000      0.60000000      0.60000000      0.60000000      0.60000000      0.60000000      0.60000000
      0.60000000      0.60000000      0.60000000      0.60000000      0.60000000      0.60000000      0.60000000      0.60000000      0.60000000      0.60000000      0.60000000      0.60000000      0.60000000      0.60000000      0.60000000      0.60000000      0.60000000      0.60000000      0.60000000      0.60000000
      0.60000000      0.60000000      0.60000000      0.60000000      0.60000000      0.60000000      0.60000000      0.60000000      0.60000000      0.60000000      0.60000000      0.60000000      0.60000000      0.60000000      0.60000000      0.60000000      0.60000000      0.60000000      0.60000000      0.60000000
      0.60000000      0.60000000      0.60000000      0.60000000      0.60000000      0.60000000      0.60000000      0.60000000      0.60000000      0.60000000      0.60000000      0.60000000      0.60000000      0.60000000      0.60000000      0.60000000      0.60000000      0.60000000      0.60000000      0.60000000
      0.60000000      0.60000000      0.60000000      0.60000000      0.60000000      0.60000000      0.60000000      0.60000000      0.60000000      0.60000000      0.60000000      0.60000000      0.60000000      0.60000000      0.60000000      0.60000000      0.60000000      0.60000000      0.60000000      0.60000000
</v>
  <i type="string" name="LREAL"> Auto</i>
  <i type="int" name="ISMEAR">     0</i>
  <i name="SIGMA">      0.05000000</i>
  <i type="logical" name="LWAVE"> F  </i>
  <i type="logical" name="LCHARG"> F  </i>
  <i type="logical" name="LVHAR"> T  </i>
  <v type="int" name="KPOINT_BSE">    -1     0     0     0</v>
  <i type="int" name="NELM">    60</i>
  <i type="string" name="GGA"> Rp</i>
 </incar>
 <structure name="primitive_cell" >
  <crystal>
   <varray name="basis" >
    <v>      12.80853200       0.00000000       0.00000000 </v>
    <v>       0.00000000       6.47024300       0.00000000 </v>
    <v>       0.00000000       0.00000000      25.88097200 </v>
   </varray>
   <i name="volume">   2144.86781344 </i>
   <varray name="rec_basis" >
    <v>       0.07807296       0.00000000       0.00000000 </v>
    <v>       0.00000000       0.15455370       0.00000000 </v>
    <v>       0.00000000       0.00000000       0.03863843 </v>
   </varray>
  </crystal>
  <varray name="positions" >
   <v>       0.12500000      -0.50000000       0.18750000 </v>
   <v>       0.12500000      -0.19156000       0.18750000 </v>
   <v>       0.12500000       0.19156000       0.18750000 </v>
   <v>       0.00000000      -0.50000000       0.13961000 </v>
   <v>       0.25000000      -0.50000000       0.13961000 </v>
   <v>       0.00000000      -0.50000000       0.23539000 </v>
   <v>       0.25000000      -0.50000000       0.23539000 </v>
   <v>       0.37500000      -0.50000000       0.18750000 </v>
   <v>      -0.12500000      -0.50000000       0.18750000 </v>
   <v>       0.12500000       0.30844000       0.06250000 </v>
   <v>       0.12500000      -0.30844000       0.06250000 </v>
   <v>       0.12481955      -0.30761370       0.31301001 </v>
   <v>       0.12481955       0.30761370       0.31301001 </v>
   <v>       0.00000000      -0.50000000       0.06250000 </v>
   <v>       0.25000000      -0.50000000       0.06250000 </v>
   <v>       0.00000000       0.00000000       0.18750000 </v>
   <v>       0.25000000       0.00000000       0.18750000 </v>
   <v>       0.24978997      -0.50000000       0.31310802 </v>
   <v>       0.00013754      -0.50000000       0.31312950 </v>
   <v>       0.37500000      -0.19156000       0.18750000 </v>
   <v>       0.37500000       0.19156000       0.18750000 </v>
   <v>      -0.12500000      -0.19156000       0.18750000 </v>
   <v>      -0.12500000       0.19156000       0.18750000 </v>
   <v>       0.24920384       0.00000000       0.26481849 </v>
   <v>       0.00066420       0.00000000       0.26483556 </v>
   <v>       0.00000000       0.00000000       0.11039000 </v>
   <v>       0.25000000       0.00000000       0.11039000 </v>
   <v>       0.12500000       0.00000000       0.06250000 </v>
   <v>       0.12491797       0.00000000       0.31333534 </v>
   <v>      -0.12448597      -0.30784247       0.31231711 </v>
   <v>      -0.12448597       0.30784247       0.31231711 </v>
   <v>       0.37461501      -0.30768234       0.31232163 </v>
   <v>       0.37461501       0.30768234       0.31232163 </v>
   <v>       0.37500000       0.30844000       0.06250000 </v>
   <v>       0.37500000      -0.30844000       0.06250000 </v>
   <v>      -0.12500000       0.30844000       0.06250000 </v>
   <v>      -0.12500000      -0.30844000       0.06250000 </v>
   <v>      -0.50000000      -0.50000000       0.13961000 </v>
   <v>      -0.25000000      -0.50000000       0.13961000 </v>
   <v>      -0.50000000      -0.50000000       0.23539000 </v>
   <v>      -0.25000000      -0.50000000       0.23539000 </v>
   <v>       0.25042755      -0.50000000       0.38987699 </v>
   <v>      -0.00039395      -0.50000000       0.38997101 </v>
   <v>       0.37407832       0.00000000       0.31261231 </v>
   <v>      -0.12427506       0.00000000       0.31256965 </v>
   <v>       0.37500000       0.00000000       0.06250000 </v>
   <v>      -0.12500000       0.00000000       0.06250000 </v>
   <v>       0.00000000       0.00000000       0.01461000 </v>
   <v>       0.25000000       0.00000000       0.01461000 </v>
   <v>      -0.00080703       0.00000000       0.36157008 </v>
   <v>       0.25059014       0.00000000       0.36161674 </v>
   <v>       0.49953362      -0.50000000       0.31261204 </v>
   <v>      -0.24971571      -0.50000000       0.31262850 </v>
   <v>      -0.50000000      -0.50000000       0.06250000 </v>
   <v>      -0.25000000      -0.50000000       0.06250000 </v>
   <v>      -0.50000000       0.00000000       0.18750000 </v>
   <v>      -0.25000000       0.00000000       0.18750000 </v>
   <v>      -0.50000000       0.00000000       0.11039000 </v>
   <v>      -0.25000000       0.00000000       0.11039000 </v>
   <v>      -0.49997219       0.00000000       0.26495660 </v>
   <v>      -0.25023496       0.00000000       0.26484206 </v>
   <v>      -0.37500000      -0.50000000       0.18750000 </v>
   <v>       0.12495358      -0.50000000       0.43822722 </v>
   <v>      -0.37500000      -0.19156000       0.18750000 </v>
   <v>      -0.37500000       0.19156000       0.18750000 </v>
   <v>       0.12472199      -0.19056008       0.43627761 </v>
   <v>       0.12472199       0.19056008       0.43627761 </v>
   <v>       0.49827371      -0.50000000       0.38891528 </v>
   <v>      -0.24842083      -0.50000000       0.38897461 </v>
   <v>       0.37528301      -0.50000000       0.43889027 </v>
   <v>      -0.12549687      -0.50000000       0.43893052 </v>
   <v>      -0.37527647      -0.30805799       0.31229779 </v>
   <v>      -0.37527647       0.30805799       0.31229779 </v>
   <v>      -0.37500000       0.30844000       0.06250000 </v>
   <v>      -0.37500000      -0.30844000       0.06250000 </v>
   <v>       0.49605454       0.00000000       0.36052876 </v>
   <v>      -0.24665054       0.00000000       0.36040022 </v>
   <v>      -0.50000000       0.00000000       0.01461000 </v>
   <v>      -0.25000000       0.00000000       0.01461000 </v>
   <v>       0.25116410       0.00000000       0.44250427 </v>
   <v>      -0.00165815       0.00000000       0.44246842 </v>
   <v>       0.37797719      -0.19085171       0.44052674 </v>
   <v>       0.37797719       0.19085171       0.44052674 </v>
   <v>      -0.12834917      -0.19076385       0.44055647 </v>
   <v>      -0.12834917       0.19076385       0.44055647 </v>
   <v>       0.00019828      -0.50000000       0.48403086 </v>
   <v>       0.24976880      -0.50000000       0.48412231 </v>
   <v>      -0.37500000       0.00000000       0.06250000 </v>
   <v>      -0.37519992       0.00000000       0.31314973 </v>
   <v>      -0.25596878       0.00000000       0.43989820 </v>
   <v>      -0.49449864       0.00000000       0.44007222 </v>
   <v>      -0.49752852      -0.50000000       0.48298455 </v>
   <v>      -0.25296039      -0.50000000       0.48308245 </v>
   <v>      -0.37515982      -0.50000000       0.43603054 </v>
   <v>       0.00332291       0.00000000      -0.48821383 </v>
   <v>       0.24697745       0.00000000      -0.48812946 </v>
   <v>      -0.37526747      -0.19508396       0.42842109 </v>
   <v>      -0.37526747       0.19508396       0.42842109 </v>
   <v>      -0.30854570       0.00000000      -0.49156365 </v>
   <v>      -0.44133905       0.00000000      -0.49140187 </v>
  </varray>
 </structure>
 <varray name="primitive_index" >
  <v type="int" >        1 </v>
  <v type="int" >       21 </v>
  <v type="int" >       29 </v>
  <v type="int" >       17 </v>
  <v type="int" >       18 </v>
  <v type="int" >       25 </v>
  <v type="int" >       26 </v>
  <v type="int" >        2 </v>
  <v type="int" >       52 </v>
  <v type="int" >       23 </v>
  <v type="int" >       31 </v>
  <v type="int" >       47 </v>
  <v type="int" >       39 </v>
  <v type="int" >        5 </v>
  <v type="int" >        6 </v>
  <v type="int" >        7 </v>
  <v type="int" >        8 </v>
  <v type="int" >       14 </v>
  <v type="int" >       13 </v>
  <v type="int" >       22 </v>
  <v type="int" >       30 </v>
  <v type="int" >       72 </v>
  <v type="int" >       80 </v>
  <v type="int" >       36 </v>
  <v type="int" >       35 </v>
  <v type="int" >       27 </v>
  <v type="int" >       28 </v>
  <v type="int" >        3 </v>
  <v type="int" >       11 </v>
  <v type="int" >       98 </v>
  <v type="int" >       90 </v>
  <v type="int" >       48 </v>
  <v type="int" >       40 </v>
  <v type="int" >       24 </v>
  <v type="int" >       32 </v>
  <v type="int" >       74 </v>
  <v type="int" >       82 </v>
  <v type="int" >       67 </v>
  <v type="int" >       68 </v>
  <v type="int" >       75 </v>
  <v type="int" >       76 </v>
  <v type="int" >       34 </v>
  <v type="int" >       33 </v>
  <v type="int" >       12 </v>
  <v type="int" >       62 </v>
  <v type="int" >        4 </v>
  <v type="int" >       54 </v>
  <v type="int" >       19 </v>
  <v type="int" >       20 </v>
  <v type="int" >       43 </v>
  <v type="int" >       44 </v>
  <v type="int" >       63 </v>
  <v type="int" >       64 </v>
  <v type="int" >       55 </v>
  <v type="int" >       56 </v>
  <v type="int" >       57 </v>
  <v type="int" >       58 </v>
  <v type="int" >       77 </v>
  <v type="int" >       78 </v>
  <v type="int" >       85 </v>
  <v type="int" >       86 </v>
  <v type="int" >       51 </v>
  <v type="int" >        9 </v>
  <v type="int" >       71 </v>
  <v type="int" >       79 </v>
  <v type="int" >       37 </v>
  <v type="int" >       45 </v>
  <v type="int" >       83 </v>
  <v type="int" >       84 </v>
  <v type="int" >       10 </v>
  <v type="int" >       60 </v>
  <v type="int" >       97 </v>
  <v type="int" >       89 </v>
  <v type="int" >       73 </v>
  <v type="int" >       81 </v>
  <v type="int" >       93 </v>
  <v type="int" >       94 </v>
  <v type="int" >       69 </v>
  <v type="int" >       70 </v>
  <v type="int" >       16 </v>
  <v type="int" >       15 </v>
  <v type="int" >       38 </v>
  <v type="int" >       46 </v>
  <v type="int" >       88 </v>
  <v type="int" >       96 </v>
  <v type="int" >       41 </v>
  <v type="int" >       42 </v>
  <v type="int" >       53 </v>
  <v type="int" >       61 </v>
  <v type="int" >       66 </v>
  <v type="int" >       65 </v>
  <v type="int" >       91 </v>
  <v type="int" >       92 </v>
  <v type="int" >       59 </v>
  <v type="int" >       50 </v>
  <v type="int" >       49 </v>
  <v type="int" >       87 </v>
  <v type="int" >       95 </v>
  <v type="int" >       99 </v>
  <v type="int" >      100 </v>
 </varray>
 <kpoints>
  <generation param="Gamma">
   <v type="int" name="divisions">       3        3        1 </v>
   <v name="usershift">      0.00000000       0.00000000       0.00000000 </v>
   <v name="genvec1">      0.33333333       0.00000000       0.00000000 </v>
   <v name="genvec2">      0.00000000       0.33333333       0.00000000 </v>
   <v name="genvec3">      0.00000000       0.00000000       1.00000000 </v>
   <v name="shift">      0.00000000       0.00000000       0.00000000 </v>
  </generation>
  <varray name="kpointlist" >
   <v>       0.00000000       0.00000000       0.00000000 </v>
   <v>       0.33333333       0.00000000       0.00000000 </v>
   <v>       0.00000000       0.33333333       0.00000000 </v>
   <v>       0.33333333       0.33333333       0.00000000 </v>
  </varray>
  <varray name="weights" >
   <v>       0.11111111 </v>
   <v>       0.22222222 </v>
   <v>       0.22222222 </v>
   <v>       0.44444444 </v>
  </varray>
 </kpoints>
 <parameters>
  <separator name="general" >
   <i type="string" name="SYSTEM">unknown system</i>
   <i type="logical" name="LCOMPAT"> F  </i>
  </separator>
  <separator name="electronic" >
   <i type="string" name="PREC">normal</i>
   <i name="ENMAX">    500.00000000</i>
   <i name="ENAUG">    605.39200000</i>
   <i name="EDIFF">      0.00000100</i>
   <i type="int" name="IALGO">    68</i>
   <i type="int" name="IWAVPR">    11</i>
   <i type="int" name="NBANDS">   480</i>
   <i name="NELECT">    696.00000000</i>
   <i type="int" name="TURBO">     0</i>
   <i type="int" name="IRESTART">     0</i>
   <i type="int" name="NREBOOT">     0</i>
   <i type="int" name="NMIN">     0</i>
   <i name="EREF">      0.00000000</i>
   <separator name="electronic smearing" >
    <i type="int" name="ISMEAR">     0</i>
    <i name="SIGMA">      0.05000000</i>
    <i name="KSPACING">      0.50000000</i>
    <i type="logical" name="KGAMMA"> T  </i>
   </separator>
   <separator name="electronic projectors" >
    <i type="logical" name="LREAL"> T  </i>
    <v name="ROPT">     -0.00050000     -0.00050000     -0.00050000     -0.00050000</v>
    <i type="int" name="LMAXPAW">  -100</i>
    <i type="int" name="LMAXMIX">     2</i>
    <i type="logical" name="NLSPLINE"> F  </i>
   </separator>
   <separator name="electronic startup" >
    <i type="int" name="ISTART">     0</i>
    <i type="int" name="ICHARG">     2</i>
    <i type="int" name="INIWAV">     1</i>
   </separator>
   <separator name="electronic spin" >
    <i type="int" name="ISPIN">     2</i>
    <i type="logical" name="LNONCOLLINEAR"> F  </i>
    <v name="MAGMOM">      0.60000000      0.60000000      0.60000000      0.60000000      0.60000000      0.60000000      0.60000000      0.60000000      0.60000000      0.60000000      0.60000000      0.60000000      0.60000000      0.60000000      0.60000000      0.60000000      0.60000000      0.60000000      0.60000000      0.60000000
      0.60000000      0.60000000      0.60000000      0.60000000      0.60000000      0.60000000      0.60000000      0.60000000      0.60000000      0.60000000      0.60000000      0.60000000      0.60000000      0.60000000      0.60000000      0.60000000      0.60000000      0.60000000      0.60000000      0.60000000
      0.60000000      0.60000000      0.60000000      0.60000000      0.60000000      0.60000000      0.60000000      0.60000000      0.60000000      0.60000000      0.60000000      0.60000000      0.60000000      0.60000000      0.60000000      0.60000000      0.60000000      0.60000000      0.60000000      0.60000000
      0.60000000      0.60000000      0.60000000      0.60000000      0.60000000      0.60000000      0.60000000      0.60000000      0.60000000      0.60000000      0.60000000      0.60000000      0.60000000      0.60000000      0.60000000      0.60000000      0.60000000      0.60000000      0.60000000      0.60000000
      0.60000000      0.60000000      0.60000000      0.60000000      0.60000000      0.60000000      0.60000000      0.60000000      0.60000000      0.60000000      0.60000000      0.60000000      0.60000000      0.60000000      0.60000000      0.60000000      0.60000000      0.60000000      0.60000000      0.60000000
</v>
    <i name="NUPDOWN">     -1.00000000</i>
    <i type="logical" name="LSORBIT"> F  </i>
    <v name="SAXIS">      0.00000000      0.00000000      1.00000000</v>
    <i type="logical" name="LSPIRAL"> F  </i>
    <v name="QSPIRAL">      0.00000000      0.00000000      0.00000000</v>
    <i type="logical" name="LZEROZ"> F  </i>
   </separator>
   <separator name="electronic exchange-correlation" >
    <i type="logical" name="LASPH"> F  </i>
    <i type="logical" name="LMETAGGA"> F  </i>
   </separator>
   <separator name="electronic convergence" >
    <i type="int" name="NELM">    60</i>
    <i type="int" name="NELMDL">     0</i>
    <i type="int" name="NELMIN">     4</i>
    <i name="ENINI">    500.00000000</i>
    <separator name="electronic convergence detail" >
     <i type="logical" name="LDIAG"> T  </i>
     <i type="logical" name="LSUBROT"> F  </i>
     <i name="WEIMIN">      0.00100000</i>
     <i name="EBREAK">      0.00000000</i>
     <i name="DEPER">      0.30000000</i>
     <i type="int" name="NRMM">     4</i>
     <i name="TIME">      0.40000000</i>
    </separator>
   </separator>
   <separator name="electronic mixer" >
    <i name="AMIX">      0.40000000</i>
    <i name="BMIX">      1.00000000</i>
    <i name="AMIN">      0.10000000</i>
    <i name="AMIX_MAG">      1.60000000</i>
    <i name="BMIX_MAG">      1.00000000</i>
    <separator name="electronic mixer details" >
     <i type="int" name="IMIX">     4</i>
     <i type="logical" name="MIXFIRST"> F  </i>
     <i type="int" name="MAXMIX">    60</i>
     <i name="WC">    100.00000000</i>
     <i type="int" name="INIMIX">     1</i>
     <i type="int" name="MIXPRE">     1</i>
     <i type="int" name="MREMOVE">     5</i>
    </separator>
   </separator>
   <separator name="electronic dipolcorrection" >
    <i type="logical" name="LDIPOL"> F  </i>
    <i type="logical" name="LMONO"> F  </i>
    <i type="int" name="IDIPOL">     0</i>
    <i name="EPSILON">      1.00000000</i>
    <v name="DIPOL">   -100.00000000   -100.00000000   -100.00000000</v>
    <i name="EFIELD">      0.00000000</i>
   </separator>
  </separator>
  <separator name="grids" >
   <i type="int" name="NGX">    70</i>
   <i type="int" name="NGY">    36</i>
   <i type="int" name="NGZ">   144</i>
   <i type="int" name="NGXF">   140</i>
   <i type="int" name="NGYF">    72</i>
   <i type="int" name="NGZF">   288</i>
   <i type="logical" name="ADDGRID"> F  </i>
  </separator>
  <separator name="ionic" >
   <i type="int" name="NSW">  1237</i>
   <i type="int" name="IBRION">     5</i>
   <i type="int" name="MDALGO">     0</i>
   <i type="int" name="ISIF">     2</i>
   <i name="PSTRESS">      0.00000000</i>
   <i name="EDIFFG">     -0.05000000</i>
   <i type="int" name="NFREE">     2</i>
   <i name="POTIM">      0.50000000</i>
   <i name="SMASS">     -3.00000000</i>
   <i name="SCALEE">      1.00000000</i>
  </separator>
  <separator name="ionic md" >
   <i name="TEBEG">      0.00010000</i>
   <i name="TEEND">      0.00010000</i>
   <i type="int" name="NBLOCK">     1</i>
   <i type="int" name="KBLOCK">  1237</i>
   <i type="int" name="NPACO">   256</i>
   <i name="APACO">     16.00000000</i>
  </separator>
  <separator name="symmetry" >
   <i type="int" name="ISYM">     2</i>
   <i name="SYMPREC">      0.00001000</i>
  </separator>
  <separator name="dos" >
   <i type="int" name="LORBIT">     0</i>
   <v name="RWIGS">     -1.00000000     -1.00000000     -1.00000000     -1.00000000</v>
   <i type="int" name="NEDOS">   301</i>
   <i name="EMIN">     10.00000000</i>
   <i name="EMAX">    -10.00000000</i>
   <i name="EFERMI">      0.00000000</i>
  </separator>
  <separator name="writing" >
   <i type="int" name="NWRITE">     2</i>
   <i type="logical" name="LWAVE"> F  </i>
   <i type="logical" name="LDOWNSAMPLE"> F  </i>
   <i type="logical" name="LCHARG"> F  </i>
   <i type="logical" name="LPARD"> F  </i>
   <i type="logical" name="LVTOT"> F  </i>
   <i type="logical" name="LVHAR"> T  </i>
   <i type="logical" name="LELF"> F  </i>
   <i type="logical" name="LOPTICS"> F  </i>
   <v name="STM">      0.00000000      0.00000000      0.00000000      0.00000000      0.00000000      0.00000000      0.00000000</v>
  </separator>
  <separator name="performance" >
   <i type="int" name="NPAR">    40</i>
   <i type="int" name="NSIM">     4</i>
   <i type="int" name="NBLK">    -1</i>
   <i type="logical" name="LPLANE"> T  </i>
   <i type="logical" name="LSCALAPACK"> T  </i>
   <i type="logical" name="LSCAAWARE"> F  </i>
   <i type="logical" name="LSCALU"> F  </i>
   <i type="logical" name="LASYNC"> F  </i>
   <i type="logical" name="LORBITALREAL"> F  </i>
  </separator>
  <separator name="miscellaneous" >
   <i type="int" name="IDIOT">     3</i>
   <i type="int" name="ISPECIAL">     0</i>
   <i type="logical" name="LMUSIC"> F  </i>
   <v name="POMASS">    192.22000000     16.00000000    192.22000000     16.00000000</v>
   <v name="DARWINR">      0.00000000      0.00000000      0.00000000      0.00000000</v>
   <v name="DARWINV">      1.00000000      1.00000000      1.00000000      1.00000000</v>
   <i type="logical" name="LCORR"> T  </i>
  </separator>
  <i type="logical" name="GGA_COMPAT"> T  </i>
  <i type="logical" name="LBERRY"> F  </i>
  <i type="int" name="ICORELEVEL">     0</i>
  <i type="logical" name="LDAU"> F  </i>
  <i type="int" name="I_CONSTRAINED_M">     0</i>
  <separator name="electronic exchange-correlation" >
   <i type="string" name="GGA">RP</i>
   <i type="int" name="VOSKOWN">     0</i>
   <i type="logical" name="LHFCALC"> F  </i>
   <i type="string" name="PRECFOCK"></i>
   <i type="logical" name="LSYMGRAD"> F  </i>
   <i type="logical" name="LHFONE"> F  </i>
   <i type="logical" name="LRHFCALC"> F  </i>
   <i type="logical" name="LTHOMAS"> F  </i>
   <i type="logical" name="LMODELHF"> F  </i>
   <i name="ENCUT4O">     -1.00000000</i>
   <i type="int" name="EXXOEP">     0</i>
   <i type="int" name="FOURORBIT">     0</i>
   <i name="AEXX">      0.00000000</i>
   <i name="HFALPHA">      0.00000000</i>
   <i name="MCALPHA">      0.00000000</i>
   <i name="ALDAX">      1.00000000</i>
   <i name="AGGAX">      1.00000000</i>
   <i name="ALDAC">      1.00000000</i>
   <i name="AGGAC">      1.00000000</i>
   <i type="int" name="NKREDX">     1</i>
   <i type="int" name="NKREDY">     1</i>
   <i type="int" name="NKREDZ">     1</i>
   <i type="logical" name="SHIFTRED"> F  </i>
   <i type="logical" name="ODDONLY"> F  </i>
   <i type="logical" name="EVENONLY"> F  </i>
   <i type="int" name="LMAXFOCK">     0</i>
   <i type="int" name="NMAXFOCKAE">     0</i>
   <i type="logical" name="LFOCKAEDFT"> F  </i>
   <i name="HFSCREEN">      0.00000000</i>
   <i name="HFSCREENC">      0.00000000</i>
   <i type="int" name="NBANDSGWLOW">     0</i>
  </separator>
  <separator name="vdW DFT" >
   <i type="logical" name="LUSE_VDW"> F  </i>
   <i name="Zab_VDW">     -0.84910000</i>
   <i name="PARAM1">      0.12340000</i>
   <i name="PARAM2">      1.00000000</i>
   <i name="PARAM3">      0.00000000</i>
  </separator>
  <separator name="model GW" >
   <i type="int" name="MODEL_GW">     0</i>
   <i name="MODEL_EPS0">     12.86920688</i>
   <i name="MODEL_ALPHA">      1.00000000</i>
  </separator>
  <separator name="linear response parameters" >
   <i type="logical" name="LEPSILON"> F  </i>
   <i type="logical" name="LRPA"> F  </i>
   <i type="logical" name="LNABLA"> F  </i>
   <i type="logical" name="LVEL"> F  </i>
   <i type="int" name="KINTER">     0</i>
   <i name="CSHIFT">      0.10000000</i>
   <i name="OMEGAMAX">     -1.00000000</i>
   <i name="DEG_THRESHOLD">      0.00200000</i>
   <i name="RTIME">     -0.10000000</i>
   <i name="WPLASMAI">      0.00000000</i>
   <v name="DFIELD">      0.00000000      0.00000000      0.00000000</v>
   <v name="WPLASMA">      0.00000000      0.00000000      0.00000000      0.00000000      0.00000000      0.00000000      0.00000000      0.00000000      0.00000000</v>
  </separator>
  <separator name="orbital magnetization" >
   <i type="logical" name="NUCIND"> F  </i>
   <v name="MAGPOS">      0.00000000      0.00000000      0.00000000</v>
   <i type="logical" name="LNICSALL"> T  </i>
   <i type="logical" name="ORBITALMAG"> F  </i>
   <i type="logical" name="LMAGBLOCH"> F  </i>
   <i type="logical" name="LCHIMAG"> F  </i>
   <i type="logical" name="LGAUGE"> T  </i>
   <i type="int" name="MAGATOM">     0</i>
   <v name="MAGDIPOL">      0.00000000      0.00000000      0.00000000</v>
   <v name="AVECCONST">      0.00000000      0.00000000      0.00000000</v>
  </separator>
  <separator name="response functions" >
   <i type="logical" name="LADDER"> F  </i>
   <i type="logical" name="LRPAFORCE"> F  </i>
   <i type="logical" name="LFXC"> F  </i>
   <i type="logical" name="LHARTREE"> T  </i>
   <i type="int" name="IBSE">     0</i>
   <v type="int" name="KPOINT">    -1     0     0     0</v>
   <i type="logical" name="LTCTE"> F  </i>
   <i type="logical" name="LTETE"> F  </i>
   <i type="logical" name="LTRIPLET"> F  </i>
   <i type="logical" name="LFXCEPS"> F  </i>
   <i type="logical" name="LFXHEG"> F  </i>
   <i type="int" name="NATURALO">     2</i>
   <i type="logical" name="L2ORDER"> F  </i>
   <i type="logical" name="LMP2LT"> F  </i>
   <i type="logical" name="LUSEW"> F  </i>
   <i name="ENCUTGW">     -2.00000000</i>
   <i name="ENCUTGWSOFT">     -2.00000000</i>
   <i name="ENCUTLF">     -1.00000000</i>
   <i type="int" name="LMAXMP2">    -1</i>
   <i name="SCISSOR">      0.00000000</i>
   <i type="int" name="NOMEGA">     0</i>
   <i type="int" name="NOMEGAR">     0</i>
   <i type="int" name="NBANDSGW">    -1</i>
   <i type="int" name="NBANDSO">    -1</i>
   <i type="int" name="NBANDSV">    -1</i>
   <i type="int" name="NELM">    60</i>
   <i type="int" name="NELMHF">     1</i>
   <i type="int" name="DIM">     3</i>
   <i type="int" name="ANTIRES">     0</i>
   <i name="OMEGAMAX">    -30.00000000</i>
   <i name="OMEGAMIN">    -30.00000000</i>
   <i name="OMEGATL">   -200.00000000</i>
   <i type="int" name="OMEGAGRID">   140</i>
   <i name="CSHIFT">     -0.10000000</i>
   <i type="logical" name="SELFENERGY"> F  </i>
   <i type="logical" name="LSPECTRAL"> F  </i>
   <i type="logical" name="LSPECTRALGW"> F  </i>
   <i type="logical" name="LSINGLES"> F  </i>
   <i type="logical" name="LFERMIGW"> F  </i>
   <i type="logical" name="ODDONLYGW"> F  </i>
   <i type="logical" name="EVENONLYGW"> F  </i>
   <i type="int" name="NKREDLFX">     1</i>
   <i type="int" name="NKREDLFY">     1</i>
   <i type="int" name="NKREDLFZ">     1</i>
   <i type="int" name="MAXMEM">  2800</i>
   <i type="int" name="TELESCOPE">     0</i>
   <i type="int" name="TAUPAR">     1</i>
   <i type="int" name="OMEGAPAR">    -1</i>
   <i name="LAMBDA">      1.00000000</i>
  </separator>
  <separator name="External order field" >
   <i name="OFIELD_KAPPA">      0.00000000</i>
   <v name="OFIELD_K">      0.00000000      0.00000000      0.00000000</v>
   <i name="OFIELD_Q6_NEAR">      0.00000000</i>
   <i name="OFIELD_Q6_FAR">      0.00000000</i>
   <i name="OFIELD_A">      0.00000000</i>
  </separator>
  <separator name="solvation model" >
   <i type="logical" name="LSOL"> F  </i>
  </separator>
 </parameters>
 <atominfo>
  <atoms>     100 </atoms>
  <types>       4 </types>
  <array name="atoms" >
   <dimension dim="1">ion</dimension>
   <field type="string">element</field>
   <field type="int">atomtype</field>
   <set>
    <rc><c>Ir</c><c>   1</c></rc>
    <rc><c>Ir</c><c>   1</c></rc>
    <rc><c>Ir</c><c>   1</c></rc>
    <rc><c>Ir</c><c>   1</c></rc>
    <rc><c>Ir</c><c>   1</c></rc>
    <rc><c>Ir</c><c>   1</c></rc>
    <rc><c>Ir</c><c>   1</c></rc>
    <rc><c>Ir</c><c>   1</c></rc>
    <rc><c>Ir</c><c>   1</c></rc>
    <rc><c>Ir</c><c>   1</c></rc>
    <rc><c>Ir</c><c>   1</c></rc>
    <rc><c>Ir</c><c>   1</c></rc>
    <rc><c>Ir</c><c>   1</c></rc>
    <rc><c>Ir</c><c>   1</c></rc>
    <rc><c>Ir</c><c>   1</c></rc>
    <rc><c>Ir</c><c>   1</c></rc>
    <rc><c>O </c><c>   2</c></rc>
    <rc><c>O </c><c>   2</c></rc>
    <rc><c>O </c><c>   2</c></rc>
    <rc><c>O </c><c>   2</c></rc>
    <rc><c>O </c><c>   2</c></rc>
    <rc><c>O </c><c>   2</c></rc>
    <rc><c>O </c><c>   2</c></rc>
    <rc><c>O </c><c>   2</c></rc>
    <rc><c>O </c><c>   2</c></rc>
    <rc><c>O </c><c>   2</c></rc>
    <rc><c>O </c><c>   2</c></rc>
    <rc><c>O </c><c>   2</c></rc>
    <rc><c>O </c><c>   2</c></rc>
    <rc><c>O </c><c>   2</c></rc>
    <rc><c>O </c><c>   2</c></rc>
    <rc><c>O </c><c>   2</c></rc>
    <rc><c>O </c><c>   2</c></rc>
    <rc><c>O </c><c>   2</c></rc>
    <rc><c>O </c><c>   2</c></rc>
    <rc><c>O </c><c>   2</c></rc>
    <rc><c>O </c><c>   2</c></rc>
    <rc><c>O </c><c>   2</c></rc>
    <rc><c>O </c><c>   2</c></rc>
    <rc><c>O </c><c>   2</c></rc>
    <rc><c>O </c><c>   2</c></rc>
    <rc><c>O </c><c>   2</c></rc>
    <rc><c>O </c><c>   2</c></rc>
    <rc><c>O </c><c>   2</c></rc>
    <rc><c>O </c><c>   2</c></rc>
    <rc><c>O </c><c>   2</c></rc>
    <rc><c>O </c><c>   2</c></rc>
    <rc><c>O </c><c>   2</c></rc>
    <rc><c>O </c><c>   2</c></rc>
    <rc><c>O </c><c>   2</c></rc>
    <rc><c>Ir</c><c>   3</c></rc>
    <rc><c>Ir</c><c>   3</c></rc>
    <rc><c>Ir</c><c>   3</c></rc>
    <rc><c>Ir</c><c>   3</c></rc>
    <rc><c>Ir</c><c>   3</c></rc>
    <rc><c>Ir</c><c>   3</c></rc>
    <rc><c>Ir</c><c>   3</c></rc>
    <rc><c>Ir</c><c>   3</c></rc>
    <rc><c>Ir</c><c>   3</c></rc>
    <rc><c>Ir</c><c>   3</c></rc>
    <rc><c>Ir</c><c>   3</c></rc>
    <rc><c>Ir</c><c>   3</c></rc>
    <rc><c>Ir</c><c>   3</c></rc>
    <rc><c>Ir</c><c>   3</c></rc>
    <rc><c>Ir</c><c>   3</c></rc>
    <rc><c>Ir</c><c>   3</c></rc>
    <rc><c>O </c><c>   4</c></rc>
    <rc><c>O </c><c>   4</c></rc>
    <rc><c>O </c><c>   4</c></rc>
    <rc><c>O </c><c>   4</c></rc>
    <rc><c>O </c><c>   4</c></rc>
    <rc><c>O </c><c>   4</c></rc>
    <rc><c>O </c><c>   4</c></rc>
    <rc><c>O </c><c>   4</c></rc>
    <rc><c>O </c><c>   4</c></rc>
    <rc><c>O </c><c>   4</c></rc>
    <rc><c>O </c><c>   4</c></rc>
    <rc><c>O </c><c>   4</c></rc>
    <rc><c>O </c><c>   4</c></rc>
    <rc><c>O </c><c>   4</c></rc>
    <rc><c>O </c><c>   4</c></rc>
    <rc><c>O </c><c>   4</c></rc>
    <rc><c>O </c><c>   4</c></rc>
    <rc><c>O </c><c>   4</c></rc>
    <rc><c>O </c><c>   4</c></rc>
    <rc><c>O </c><c>   4</c></rc>
    <rc><c>O </c><c>   4</c></rc>
    <rc><c>O </c><c>   4</c></rc>
    <rc><c>O </c><c>   4</c></rc>
    <rc><c>O </c><c>   4</c></rc>
    <rc><c>O </c><c>   4</c></rc>
    <rc><c>O </c><c>   4</c></rc>
    <rc><c>O </c><c>   4</c></rc>
    <rc><c>O </c><c>   4</c></rc>
    <rc><c>O </c><c>   4</c></rc>
    <rc><c>O </c><c>   4</c></rc>
    <rc><c>O </c><c>   4</c></rc>
    <rc><c>O </c><c>   4</c></rc>
    <rc><c>O </c><c>   4</c></rc>
    <rc><c>O </c><c>   4</c></rc>
   </set>
  </array>
  <array name="atomtypes" >
   <dimension dim="1">type</dimension>
   <field type="int">atomspertype</field>
   <field type="string">element</field>
   <field>mass</field>
   <field>valence</field>
   <field type="string">pseudopotential</field>
   <set>
    <rc><c>  16</c><c>Ir</c><c>    192.22000000</c><c>      9.00000000</c><c>  PAW_PBE Ir 06Sep2000                  </c></rc>
    <rc><c>  34</c><c>O </c><c>     16.00000000</c><c>      6.00000000</c><c>  PAW_PBE O 08Apr2002                   </c></rc>
    <rc><c>  16</c><c>Ir</c><c>    192.22000000</c><c>      9.00000000</c><c>  PAW_PBE Ir 06Sep2000                  </c></rc>
    <rc><c>  34</c><c>O </c><c>     16.00000000</c><c>      6.00000000</c><c>  PAW_PBE O 08Apr2002                   </c></rc>
   </set>
  </array>
 </atominfo>
 <structure name="initialpos" >
  <crystal>
   <varray name="basis" >
    <v>      12.80853200       0.00000000       0.00000000 </v>
    <v>       0.00000000       6.47024300       0.00000000 </v>
    <v>       0.00000000       0.00000000      25.88097200 </v>
   </varray>
   <i name="volume">   2144.86781344 </i>
   <varray name="rec_basis" >
    <v>       0.07807296       0.00000000       0.00000000 </v>
    <v>       0.00000000       0.15455370       0.00000000 </v>
    <v>       0.00000000       0.00000000       0.03863843 </v>
   </varray>
  </crystal>
  <varray name="positions" >
   <v>       0.12500000       0.50000000       0.18750000 </v>
   <v>       0.37500000       0.50000000       0.18750000 </v>
   <v>       0.12500000       0.00000000       0.06250000 </v>
   <v>       0.37500000       0.00000000       0.06250000 </v>
   <v>       0.00000000       0.50000000       0.06250000 </v>
   <v>       0.25000000       0.50000000       0.06250000 </v>
   <v>       0.00000000       0.00000000       0.18750000 </v>
   <v>       0.25000000       0.00000000       0.18750000 </v>
   <v>       0.12495358       0.50000000       0.43822722 </v>
   <v>       0.37528301       0.50000000       0.43889027 </v>
   <v>       0.12491797       0.00000000       0.31333534 </v>
   <v>       0.37407832       0.00000000       0.31261231 </v>
   <v>       0.00013754       0.50000000       0.31312950 </v>
   <v>       0.24978997       0.50000000       0.31310802 </v>
   <v>       0.99834185       0.00000000       0.44246842 </v>
   <v>       0.25116410       0.00000000       0.44250427 </v>
   <v>       0.00000000       0.50000000       0.13961000 </v>
   <v>       0.25000000       0.50000000       0.13961000 </v>
   <v>       0.00000000       0.00000000       0.01461000 </v>
   <v>       0.25000000       0.00000000       0.01461000 </v>
   <v>       0.12500000       0.80844000       0.18750000 </v>
   <v>       0.37500000       0.80844000       0.18750000 </v>
   <v>       0.12500000       0.30844000       0.06250000 </v>
   <v>       0.37500000       0.30844000       0.06250000 </v>
   <v>       0.00000000       0.50000000       0.23539000 </v>
   <v>       0.25000000       0.50000000       0.23539000 </v>
   <v>       0.00000000       0.00000000       0.11039000 </v>
   <v>       0.25000000       0.00000000       0.11039000 </v>
   <v>       0.12500000       0.19156000       0.18750000 </v>
   <v>       0.37500000       0.19156000       0.18750000 </v>
   <v>       0.12500000       0.69156000       0.06250000 </v>
   <v>       0.37500000       0.69156000       0.06250000 </v>
   <v>       0.99960605       0.50000000       0.38997101 </v>
   <v>       0.25042755       0.50000000       0.38987699 </v>
   <v>       0.00066420       0.00000000       0.26483556 </v>
   <v>       0.24920384       0.00000000       0.26481849 </v>
   <v>       0.12472199       0.80943992       0.43627761 </v>
   <v>       0.37797719       0.80914829       0.44052674 </v>
   <v>       0.12481955       0.30761370       0.31301001 </v>
   <v>       0.37461501       0.30768234       0.31232163 </v>
   <v>       0.00019828       0.50000000       0.48403086 </v>
   <v>       0.24976880       0.50000000       0.48412231 </v>
   <v>       0.99919297       0.00000000       0.36157008 </v>
   <v>       0.25059014       0.00000000       0.36161674 </v>
   <v>       0.12472199       0.19056008       0.43627761 </v>
   <v>       0.37797719       0.19085171       0.44052674 </v>
   <v>       0.12481955       0.69238630       0.31301001 </v>
   <v>       0.37461501       0.69231766       0.31232163 </v>
   <v>       0.24697745       0.00000000       0.51187054 </v>
   <v>       0.00332291       0.00000000       0.51178617 </v>
   <v>       0.62500000       0.50000000       0.18750000 </v>
   <v>       0.87500000       0.50000000       0.18750000 </v>
   <v>       0.62500000       0.00000000       0.06250000 </v>
   <v>       0.87500000       0.00000000       0.06250000 </v>
   <v>       0.50000000       0.50000000       0.06250000 </v>
   <v>       0.75000000       0.50000000       0.06250000 </v>
   <v>       0.50000000       0.00000000       0.18750000 </v>
   <v>       0.75000000       0.00000000       0.18750000 </v>
   <v>       0.62484018       0.50000000       0.43603054 </v>
   <v>       0.87450313       0.50000000       0.43893052 </v>
   <v>       0.62480008       0.00000000       0.31314973 </v>
   <v>       0.87572494       0.00000000       0.31256965 </v>
   <v>       0.49953362       0.50000000       0.31261204 </v>
   <v>       0.75028429       0.50000000       0.31262850 </v>
   <v>       0.50550136       0.00000000       0.44007222 </v>
   <v>       0.74403122       0.00000000       0.43989820 </v>
   <v>       0.50000000       0.50000000       0.13961000 </v>
   <v>       0.75000000       0.50000000       0.13961000 </v>
   <v>       0.50000000       0.00000000       0.01461000 </v>
   <v>       0.75000000       0.00000000       0.01461000 </v>
   <v>       0.62500000       0.80844000       0.18750000 </v>
   <v>       0.87500000       0.80844000       0.18750000 </v>
   <v>       0.62500000       0.30844000       0.06250000 </v>
   <v>       0.87500000       0.30844000       0.06250000 </v>
   <v>       0.50000000       0.50000000       0.23539000 </v>
   <v>       0.75000000       0.50000000       0.23539000 </v>
   <v>       0.50000000       0.00000000       0.11039000 </v>
   <v>       0.75000000       0.00000000       0.11039000 </v>
   <v>       0.62500000       0.19156000       0.18750000 </v>
   <v>       0.87500000       0.19156000       0.18750000 </v>
   <v>       0.62500000       0.69156000       0.06250000 </v>
   <v>       0.87500000       0.69156000       0.06250000 </v>
   <v>       0.49827371       0.50000000       0.38891528 </v>
   <v>       0.75157917       0.50000000       0.38897461 </v>
   <v>       0.50002781       0.00000000       0.26495660 </v>
   <v>       0.74976504       0.00000000       0.26484206 </v>
   <v>       0.62473253       0.80491604       0.42842109 </v>
   <v>       0.87165083       0.80923615       0.44055647 </v>
   <v>       0.62472353       0.30805799       0.31229779 </v>
   <v>       0.87551403       0.30784247       0.31231711 </v>
   <v>       0.50247148       0.50000000       0.48298455 </v>
   <v>       0.74703961       0.50000000       0.48308245 </v>
   <v>       0.49605454       0.00000000       0.36052876 </v>
   <v>       0.75334946       0.00000000       0.36040022 </v>
   <v>       0.62473253       0.19508396       0.42842109 </v>
   <v>       0.87165083       0.19076385       0.44055647 </v>
   <v>       0.62472353       0.69194201       0.31229779 </v>
   <v>       0.87551403       0.69215753       0.31231711 </v>
   <v>       0.69145430       0.00000000       0.50843635 </v>
   <v>       0.55866095       0.00000000       0.50859813 </v>
  </varray>
  <varray name="selective"  type="logical" >
   <v type="logical" >  F  F  F </v>
   <v type="logical" >  F  F  F </v>
   <v type="logical" >  F  F  F </v>
   <v type="logical" >  F  F  F </v>
   <v type="logical" >  F  F  F </v>
   <v type="logical" >  F  F  F </v>
   <v type="logical" >  F  F  F </v>
   <v type="logical" >  F  F  F </v>
   <v type="logical" >  F  F  F </v>
   <v type="logical" >  F  F  F </v>
   <v type="logical" >  F  F  F </v>
   <v type="logical" >  F  F  F </v>
   <v type="logical" >  F  F  F </v>
   <v type="logical" >  F  F  F </v>
   <v type="logical" >  F  F  F </v>
   <v type="logical" >  F  F  F </v>
   <v type="logical" >  F  F  F </v>
   <v type="logical" >  F  F  F </v>
   <v type="logical" >  F  F  F </v>
   <v type="logical" >  F  F  F </v>
   <v type="logical" >  F  F  F </v>
   <v type="logical" >  F  F  F </v>
   <v type="logical" >  F  F  F </v>
   <v type="logical" >  F  F  F </v>
   <v type="logical" >  F  F  F </v>
   <v type="logical" >  F  F  F </v>
   <v type="logical" >  F  F  F </v>
   <v type="logical" >  F  F  F </v>
   <v type="logical" >  F  F  F </v>
   <v type="logical" >  F  F  F </v>
   <v type="logical" >  F  F  F </v>
   <v type="logical" >  F  F  F </v>
   <v type="logical" >  F  F  F </v>
   <v type="logical" >  F  F  F </v>
   <v type="logical" >  F  F  F </v>
   <v type="logical" >  F  F  F </v>
   <v type="logical" >  F  F  F </v>
   <v type="logical" >  F  F  F </v>
   <v type="logical" >  F  F  F </v>
   <v type="logical" >  F  F  F </v>
   <v type="logical" >  F  F  F </v>
   <v type="logical" >  F  F  F </v>
   <v type="logical" >  F  F  F </v>
   <v type="logical" >  F  F  F </v>
   <v type="logical" >  F  F  F </v>
   <v type="logical" >  F  F  F </v>
   <v type="logical" >  F  F  F </v>
   <v type="logical" >  F  F  F </v>
   <v type="logical" >  F  F  F </v>
   <v type="logical" >  F  F  F </v>
   <v type="logical" >  F  F  F </v>
   <v type="logical" >  F  F  F </v>
   <v type="logical" >  F  F  F </v>
   <v type="logical" >  F  F  F </v>
   <v type="logical" >  F  F  F </v>
   <v type="logical" >  F  F  F </v>
   <v type="logical" >  F  F  F </v>
   <v type="logical" >  F  F  F </v>
   <v type="logical" >  F  F  F </v>
   <v type="logical" >  F  F  F </v>
   <v type="logical" >  F  F  F </v>
   <v type="logical" >  F  F  F </v>
   <v type="logical" >  F  F  F </v>
   <v type="logical" >  F  F  F </v>
   <v type="logical" >  F  F  F </v>
   <v type="logical" >  F  F  F </v>
   <v type="logical" >  F  F  F </v>
   <v type="logical" >  F  F  F </v>
   <v type="logical" >  F  F  F </v>
   <v type="logical" >  F  F  F </v>
   <v type="logical" >  F  F  F </v>
   <v type="logical" >  F  F  F </v>
   <v type="logical" >  F  F  F </v>
   <v type="logical" >  F  F  F </v>
   <v type="logical" >  F  F  F </v>
   <v type="logical" >  F  F  F </v>
   <v type="logical" >  F  F  F </v>
   <v type="logical" >  F  F  F </v>
   <v type="logical" >  F  F  F </v>
   <v type="logical" >  F  F  F </v>
   <v type="logical" >  F  F  F </v>
   <v type="logical" >  F  F  F </v>
   <v type="logical" >  F  F  F </v>
   <v type="logical" >  F  F  F </v>
   <v type="logical" >  F  F  F </v>
   <v type="logical" >  F  F  F </v>
   <v type="logical" >  F  F  F </v>
   <v type="logical" >  F  F  F </v>
   <v type="logical" >  F  F  F </v>
   <v type="logical" >  F  F  F </v>
   <v type="logical" >  F  F  F </v>
   <v type="logical" >  F  F  F </v>
   <v type="logical" >  F  F  F </v>
   <v type="logical" >  F  F  F </v>
   <v type="logical" >  F  F  F </v>
   <v type="logical" >  F  F  F </v>
   <v type="logical" >  F  F  F </v>
   <v type="logical" >  F  F  F </v>
   <v type="logical" >  T  T  T </v>
   <v type="logical" >  T  T  T </v>
  </varray>
  <nose>
   <v>      -3.00000000       0.00000000       0.00010000       0.00010000 </v>
  </nose>
 </structure>
 <calculation>
  <scstep>
   <time name="dav">   17.19   17.24</time>
   <time name="total">   17.35   17.41</time>
   <energy>
    <i name="alphaZ">   1826.57435200 </i>
    <i name="ewald"> 229990.83020026 </i>
    <i name="hartreedc">-276901.42015516 </i>
    <i name="XCdc">   1311.68559994 </i>
    <i name="pawpsdc">  41249.06120504 </i>
    <i name="pawaedc"> -40032.83491672 </i>
    <i name="eentropy">     -0.05325320 </i>
    <i name="bandstr">   2666.80954457 </i>
    <i name="atom">  47298.05697971 </i>
    <i name="e_fr_energy">   7408.70955643 </i>
    <i name="e_wo_entrp">   7408.76280963 </i>
    <i name="e_0_energy">   7408.73618303 </i>
   </energy>
  </scstep>
  <scstep>
   <time name="dav">   17.71   17.76</time>
   <time name="total">   17.71   17.76</time>
   <energy>
    <i name="e_fr_energy">    355.43671040 </i>
    <i name="e_wo_entrp">    355.48777815 </i>
    <i name="e_0_energy">    355.46224428 </i>
   </energy>
  </scstep>
  <scstep>
   <time name="dav">   21.10   21.17</time>
   <time name="total">   21.10   21.17</time>
   <energy>
    <i name="e_fr_energy">   -731.99391075 </i>
    <i name="e_wo_entrp">   -731.92859095 </i>
    <i name="e_0_energy">   -731.96125085 </i>
   </energy>
  </scstep>
  <scstep>
   <time name="dav">   20.04   20.13</time>
   <time name="total">   20.05   20.14</time>
   <energy>
    <i name="e_fr_energy">   -774.94139954 </i>
    <i name="e_wo_entrp">   -774.87467177 </i>
    <i name="e_0_energy">   -774.90803566 </i>
   </energy>
  </scstep>
  <scstep>
   <time name="dav">   21.01   21.08</time>
   <time name="total">   21.78   21.85</time>
   <energy>
    <i name="e_fr_energy">   -776.12932336 </i>
    <i name="e_wo_entrp">   -776.06221348 </i>
    <i name="e_0_energy">   -776.09576842 </i>
   </energy>
  </scstep>
  <scstep>
   <time name="diag">    3.39    3.40</time>
   <time name="diis">    9.05    9.08</time>
   <time name="orth">    0.81    0.81</time>
   <time name="total">   14.14   14.19</time>
   <energy>
    <i name="e_fr_energy">   -675.34739361 </i>
    <i name="e_wo_entrp">   -675.26949074 </i>
    <i name="e_0_energy">   -675.30844217 </i>
   </energy>
  </scstep>
  <scstep>
   <time name="diag">    3.41    3.42</time>
   <time name="diis">    9.22    9.28</time>
   <time name="orth">    0.81    0.81</time>
   <time name="total">   14.33   14.40</time>
   <energy>
    <i name="e_fr_energy">  -1148.29248103 </i>
    <i name="e_wo_entrp">  -1148.22569808 </i>
    <i name="e_0_energy">  -1148.25908955 </i>
   </energy>
  </scstep>
  <scstep>
   <time name="diag">    3.39    3.40</time>
   <time name="diis">    9.13    9.16</time>
   <time name="orth">    0.81    0.81</time>
   <time name="total">   14.23   14.28</time>
   <energy>
    <i name="e_fr_energy">   -914.76874790 </i>
    <i name="e_wo_entrp">   -914.70563041 </i>
    <i name="e_0_energy">   -914.73718915 </i>
   </energy>
  </scstep>
  <scstep>
   <time name="diag">    3.39    3.40</time>
   <time name="diis">    9.07    9.09</time>
   <time name="orth">    0.81    0.81</time>
   <time name="total">   14.16   14.20</time>
   <energy>
    <i name="e_fr_energy">   -984.29165402 </i>
    <i name="e_wo_entrp">   -984.24910239 </i>
    <i name="e_0_energy">   -984.27037821 </i>
   </energy>
  </scstep>
  <scstep>
   <time name="diag">    3.39    3.40</time>
   <time name="diis">    9.10    9.12</time>
   <time name="orth">    0.81    0.81</time>
   <time name="total">   14.18   14.22</time>
   <energy>
    <i name="e_fr_energy">   -769.37594481 </i>
    <i name="e_wo_entrp">   -769.31290826 </i>
    <i name="e_0_energy">   -769.34442653 </i>
   </energy>
  </scstep>
  <scstep>
   <time name="diag">    3.39    3.40</time>
   <time name="diis">    9.03    9.08</time>
   <time name="orth">    0.81    0.81</time>
   <time name="total">   14.11   14.19</time>
   <energy>
    <i name="e_fr_energy">   -633.35208155 </i>
    <i name="e_wo_entrp">   -633.29521403 </i>
    <i name="e_0_energy">   -633.32364779 </i>
   </energy>
  </scstep>
  <scstep>
   <time name="diag">    3.39    3.40</time>
   <time name="diis">    9.04    9.06</time>
   <time name="orth">    0.81    0.81</time>
   <time name="total">   14.12   14.16</time>
   <energy>
    <i name="e_fr_energy">   -664.87627071 </i>
    <i name="e_wo_entrp">   -664.82364446 </i>
    <i name="e_0_energy">   -664.84995758 </i>
   </energy>
  </scstep>
  <scstep>
   <time name="diag">    3.38    3.39</time>
   <time name="diis">    9.04    9.06</time>
   <time name="orth">    0.81    0.81</time>
   <time name="total">   14.12   14.17</time>
   <energy>
    <i name="e_fr_energy">   -616.63148524 </i>
    <i name="e_wo_entrp">   -616.57236725 </i>
    <i name="e_0_energy">   -616.60192624 </i>
   </energy>
  </scstep>
  <scstep>
   <time name="diag">    3.39    3.39</time>
   <time name="diis">    9.06    9.08</time>
   <time name="orth">    0.81    0.81</time>
   <time name="total">   14.15   14.19</time>
   <energy>
    <i name="e_fr_energy">   -615.56103816 </i>
    <i name="e_wo_entrp">   -615.48680297 </i>
    <i name="e_0_energy">   -615.52392056 </i>
   </energy>
  </scstep>
  <scstep>
   <time name="diag">    3.38    3.39</time>
   <time name="diis">    9.04    9.07</time>
   <time name="orth">    0.81    0.81</time>
   <time name="total">   14.11   14.17</time>
   <energy>
    <i name="e_fr_energy">   -614.58864883 </i>
    <i name="e_wo_entrp">   -614.50629641 </i>
    <i name="e_0_energy">   -614.54747262 </i>
   </energy>
  </scstep>
  <scstep>
   <time name="diag">    3.39    3.40</time>
   <time name="diis">    9.06    9.09</time>
   <time name="orth">    0.81    0.81</time>
   <time name="total">   14.15   14.19</time>
   <energy>
    <i name="e_fr_energy">   -614.38353888 </i>
    <i name="e_wo_entrp">   -614.30717351 </i>
    <i name="e_0_energy">   -614.34535620 </i>
   </energy>
  </scstep>
  <scstep>
   <time name="diag">    3.41    3.42</time>
   <time name="diis">    9.05    9.07</time>
   <time name="orth">    0.81    0.81</time>
   <time name="total">   14.16   14.20</time>
   <energy>
    <i name="e_fr_energy">   -616.57767329 </i>
    <i name="e_wo_entrp">   -616.51590325 </i>
    <i name="e_0_energy">   -616.54678827 </i>
   </energy>
  </scstep>
  <scstep>
   <time name="diag">    3.38    3.39</time>
   <time name="diis">    9.06    9.09</time>
   <time name="orth">    0.81    0.81</time>
   <time name="total">   14.15   14.20</time>
   <energy>
    <i name="e_fr_energy">   -620.71238128 </i>
    <i name="e_wo_entrp">   -620.64705471 </i>
    <i name="e_0_energy">   -620.67971799 </i>
   </energy>
  </scstep>
  <scstep>
   <time name="diag">    3.40    3.41</time>
   <time name="diis">    9.08    9.10</time>
   <time name="orth">    0.81    0.81</time>
   <time name="total">   14.19   14.23</time>
   <energy>
    <i name="e_fr_energy">   -625.65364962 </i>
    <i name="e_wo_entrp">   -625.57959468 </i>
    <i name="e_0_energy">   -625.61662215 </i>
   </energy>
  </scstep>
  <scstep>
   <time name="diag">    3.38    3.39</time>
   <time name="diis">    9.02    9.08</time>
   <time name="orth">    0.81    0.81</time>
   <time name="total">   14.11   14.18</time>
   <energy>
    <i name="e_fr_energy">   -628.74848703 </i>
    <i name="e_wo_entrp">   -628.66449272 </i>
    <i name="e_0_energy">   -628.70648988 </i>
   </energy>
  </scstep>
  <scstep>
   <time name="diag">    3.38    3.39</time>
   <time name="diis">    9.02    9.04</time>
   <time name="orth">    0.81    0.81</time>
   <time name="total">   14.11   14.15</time>
   <energy>
    <i name="e_fr_energy">   -629.75374346 </i>
    <i name="e_wo_entrp">   -629.68024549 </i>
    <i name="e_0_energy">   -629.71699447 </i>
   </energy>
  </scstep>
  <scstep>
   <time name="diag">    3.38    3.39</time>
   <time name="diis">    9.01    9.04</time>
   <time name="orth">    0.81    0.81</time>
   <time name="total">   14.10   14.14</time>
   <energy>
    <i name="e_fr_energy">   -630.43186528 </i>
    <i name="e_wo_entrp">   -630.35797128 </i>
    <i name="e_0_energy">   -630.39491828 </i>
   </energy>
  </scstep>
  <scstep>
   <time name="diag">    3.38    3.39</time>
   <time name="diis">    9.06    9.09</time>
   <time name="orth">    0.81    0.81</time>
   <time name="total">   14.16   14.20</time>
   <energy>
    <i name="e_fr_energy">   -631.07692392 </i>
    <i name="e_wo_entrp">   -631.00388187 </i>
    <i name="e_0_energy">   -631.04040290 </i>
   </energy>
  </scstep>
  <scstep>
   <time name="diag">    3.38    3.39</time>
   <time name="diis">    9.01    9.07</time>
   <time name="orth">    0.81    0.81</time>
   <time name="total">   14.10   14.18</time>
   <energy>
    <i name="e_fr_energy">   -632.70765367 </i>
    <i name="e_wo_entrp">   -632.64248018 </i>
    <i name="e_0_energy">   -632.67506692 </i>
   </energy>
  </scstep>
  <scstep>
   <time name="diag">    3.38    3.39</time>
   <time name="diis">    9.04    9.07</time>
   <time name="orth">    0.81    0.81</time>
   <time name="total">   14.13   14.17</time>
   <energy>
    <i name="e_fr_energy">   -633.65486090 </i>
    <i name="e_wo_entrp">   -633.58024138 </i>
    <i name="e_0_energy">   -633.61755114 </i>
   </energy>
  </scstep>
  <scstep>
   <time name="diag">    3.37    3.38</time>
   <time name="diis">    9.04    9.06</time>
   <time name="orth">    0.81    0.81</time>
   <time name="total">   14.12   14.16</time>
   <energy>
    <i name="e_fr_energy">   -634.11257309 </i>
    <i name="e_wo_entrp">   -634.03936438 </i>
    <i name="e_0_energy">   -634.07596874 </i>
   </energy>
  </scstep>
  <scstep>
   <time name="diag">    3.37    3.38</time>
   <time name="diis">    9.05    9.07</time>
   <time name="orth">    0.81    0.81</time>
   <time name="total">   14.13   14.17</time>
   <energy>
    <i name="e_fr_energy">   -635.01390663 </i>
    <i name="e_wo_entrp">   -634.94889847 </i>
    <i name="e_0_energy">   -634.98140255 </i>
   </energy>
  </scstep>
  <scstep>
   <time name="diag">    3.38    3.38</time>
   <time name="diis">    9.05    9.08</time>
   <time name="orth">    0.82    0.83</time>
   <time name="total">   14.15   14.20</time>
   <energy>
    <i name="e_fr_energy">   -635.56648503 </i>
    <i name="e_wo_entrp">   -635.49307168 </i>
    <i name="e_0_energy">   -635.52977835 </i>
   </energy>
  </scstep>
  <scstep>
   <time name="diag">    3.37    3.38</time>
   <time name="diis">    9.07    9.10</time>
   <time name="orth">    0.81    0.81</time>
   <time name="total">   14.15   14.19</time>
   <energy>
    <i name="e_fr_energy">   -635.70051023 </i>
    <i name="e_wo_entrp">   -635.62881626 </i>
    <i name="e_0_energy">   -635.66466325 </i>
   </energy>
  </scstep>
  <scstep>
   <time name="diag">    3.37    3.38</time>
   <time name="diis">    9.04    9.06</time>
   <time name="orth">    0.82    0.82</time>
   <time name="total">   14.13   14.17</time>
   <energy>
    <i name="e_fr_energy">   -636.05503792 </i>
    <i name="e_wo_entrp">   -635.98414504 </i>
    <i name="e_0_energy">   -636.01959148 </i>
   </energy>
  </scstep>
  <scstep>
   <time name="diag">    3.37    3.38</time>
   <time name="diis">    9.06    9.08</time>
   <time name="orth">    0.83    0.83</time>
   <time name="total">   14.16   14.20</time>
   <energy>
    <i name="e_fr_energy">   -636.23659869 </i>
    <i name="e_wo_entrp">   -636.16525842 </i>
    <i name="e_0_energy">   -636.20092855 </i>
   </energy>
  </scstep>
  <scstep>
   <time name="diag">    3.37    3.38</time>
   <time name="diis">    9.06    9.09</time>
   <time name="orth">    0.81    0.81</time>
   <time name="total">   14.14   14.18</time>
   <energy>
    <i name="e_fr_energy">   -636.27951705 </i>
    <i name="e_wo_entrp">   -636.20892404 </i>
    <i name="e_0_energy">   -636.24422055 </i>
   </energy>
  </scstep>
  <scstep>
   <time name="diag">    3.37    3.40</time>
   <time name="diis">    9.05    9.08</time>
   <time name="orth">    0.81    0.81</time>
   <time name="total">   14.13   14.19</time>
   <energy>
    <i name="e_fr_energy">   -636.26524876 </i>
    <i name="e_wo_entrp">   -636.19546468 </i>
    <i name="e_0_energy">   -636.23035672 </i>
   </energy>
  </scstep>
  <scstep>
   <time name="diag">    3.37    3.37</time>
   <time name="diis">    9.04    9.07</time>
   <time name="orth">    0.81    0.81</time>
   <time name="total">   14.14   14.18</time>
   <energy>
    <i name="e_fr_energy">   -636.26374039 </i>
    <i name="e_wo_entrp">   -636.19079362 </i>
    <i name="e_0_energy">   -636.22726701 </i>
   </energy>
  </scstep>
  <scstep>
   <time name="diag">    3.37    3.38</time>
   <time name="diis">    9.02    9.05</time>
   <time name="orth">    0.81    0.81</time>
   <time name="total">   14.11   14.15</time>
   <energy>
    <i name="e_fr_energy">   -636.36206690 </i>
    <i name="e_wo_entrp">   -636.28978462 </i>
    <i name="e_0_energy">   -636.32592576 </i>
   </energy>
  </scstep>
  <scstep>
   <time name="diag">    3.39    3.40</time>
   <time name="diis">    9.01    9.03</time>
   <time name="orth">    0.81    0.81</time>
   <time name="total">   14.11   14.15</time>
   <energy>
    <i name="e_fr_energy">   -636.42899659 </i>
    <i name="e_wo_entrp">   -636.35504200 </i>
    <i name="e_0_energy">   -636.39201930 </i>
   </energy>
  </scstep>
  <scstep>
   <time name="diag">    3.37    3.38</time>
   <time name="diis">    9.01    9.04</time>
   <time name="orth">    0.81    0.81</time>
   <time name="total">   14.09   14.13</time>
   <energy>
    <i name="e_fr_energy">   -636.49488959 </i>
    <i name="e_wo_entrp">   -636.42049689 </i>
    <i name="e_0_energy">   -636.45769324 </i>
   </energy>
  </scstep>
  <scstep>
   <time name="diag">    3.39    3.40</time>
   <time name="diis">    9.02    9.04</time>
   <time name="orth">    0.81    0.81</time>
   <time name="total">   14.12   14.17</time>
   <energy>
    <i name="e_fr_energy">   -636.56019092 </i>
    <i name="e_wo_entrp">   -636.48601476 </i>
    <i name="e_0_energy">   -636.52310284 </i>
   </energy>
  </scstep>
  <scstep>
   <time name="diag">    3.37    3.37</time>
   <time name="diis">    9.02    9.05</time>
   <time name="orth">    0.81    0.81</time>
   <time name="total">   14.10   14.14</time>
   <energy>
    <i name="e_fr_energy">   -636.64593476 </i>
    <i name="e_wo_entrp">   -636.57249175 </i>
    <i name="e_0_energy">   -636.60921325 </i>
   </energy>
  </scstep>
  <scstep>
   <time name="diag">    3.37    3.38</time>
   <time name="diis">    9.02    9.04</time>
   <time name="orth">    0.81    0.81</time>
   <time name="total">   14.10   14.14</time>
   <energy>
    <i name="e_fr_energy">   -636.72150902 </i>
    <i name="e_wo_entrp">   -636.64850513 </i>
    <i name="e_0_energy">   -636.68500707 </i>
   </energy>
  </scstep>
  <scstep>
   <time name="diag">    3.36    3.37</time>
   <time name="diis">    9.05    9.08</time>
   <time name="orth">    0.81    0.81</time>
   <time name="total">   14.12   14.17</time>
   <energy>
    <i name="e_fr_energy">   -636.79539700 </i>
    <i name="e_wo_entrp">   -636.72337815 </i>
    <i name="e_0_energy">   -636.75938757 </i>
   </energy>
  </scstep>
  <scstep>
   <time name="diag">    3.37    3.38</time>
   <time name="diis">    9.02    9.05</time>
   <time name="orth">    0.81    0.81</time>
   <time name="total">   14.09   14.14</time>
   <energy>
    <i name="e_fr_energy">   -636.86518402 </i>
    <i name="e_wo_entrp">   -636.79444434 </i>
    <i name="e_0_energy">   -636.82981418 </i>
   </energy>
  </scstep>
  <scstep>
   <time name="diag">    3.37    3.38</time>
   <time name="diis">    9.07    9.10</time>
   <time name="orth">    0.81    0.81</time>
   <time name="total">   14.15   14.21</time>
   <energy>
    <i name="e_fr_energy">   -636.90608115 </i>
    <i name="e_wo_entrp">   -636.83584816 </i>
    <i name="e_0_energy">   -636.87096466 </i>
   </energy>
  </scstep>
  <scstep>
   <time name="diag">    3.38    3.39</time>
   <time name="diis">    9.04    9.08</time>
   <time name="orth">    0.81    0.81</time>
   <time name="total">   14.13   14.19</time>
   <energy>
    <i name="e_fr_energy">   -636.94529178 </i>
    <i name="e_wo_entrp">   -636.87533762 </i>
    <i name="e_0_energy">   -636.91031470 </i>
   </energy>
  </scstep>
  <scstep>
   <time name="diag">    3.36    3.37</time>
   <time name="diis">    9.03    9.06</time>
   <time name="orth">    0.81    0.81</time>
   <time name="total">   14.11   14.15</time>
   <energy>
    <i name="e_fr_energy">   -636.98842018 </i>
    <i name="e_wo_entrp">   -636.91913147 </i>
    <i name="e_0_energy">   -636.95377582 </i>
   </energy>
  </scstep>
  <scstep>
   <time name="diag">    3.37    3.38</time>
   <time name="diis">    9.04    9.07</time>
   <time name="orth">    0.81    0.81</time>
   <time name="total">   14.12   14.17</time>
   <energy>
    <i name="e_fr_energy">   -637.03392312 </i>
    <i name="e_wo_entrp">   -636.96503430 </i>
    <i name="e_0_energy">   -636.99947871 </i>
   </energy>
  </scstep>
  <scstep>
   <time name="diag">    3.36    3.37</time>
   <time name="diis">    9.05    9.08</time>
   <time name="orth">    0.81    0.81</time>
   <time name="total">   14.13   14.17</time>
   <energy>
    <i name="e_fr_energy">   -637.07260701 </i>
    <i name="e_wo_entrp">   -637.00383173 </i>
    <i name="e_0_energy">   -637.03821937 </i>
   </energy>
  </scstep>
  <scstep>
   <time name="diag">    3.36    3.37</time>
   <time name="diis">    9.04    9.06</time>
   <time name="orth">    0.81    0.81</time>
   <time name="total">   14.11   14.16</time>
   <energy>
    <i name="e_fr_energy">   -637.10273206 </i>
    <i name="e_wo_entrp">   -637.03420079 </i>
    <i name="e_0_energy">   -637.06846642 </i>
   </energy>
  </scstep>
  <scstep>
   <time name="diag">    3.36    3.37</time>
   <time name="diis">    8.97    9.08</time>
   <time name="orth">    0.81    0.81</time>
   <time name="total">   14.04   14.17</time>
   <energy>
    <i name="e_fr_energy">   -637.12339290 </i>
    <i name="e_wo_entrp">   -637.05507347 </i>
    <i name="e_0_energy">   -637.08923318 </i>
   </energy>
  </scstep>
  <scstep>
   <time name="diag">    3.36    3.37</time>
   <time name="diis">    9.04    9.08</time>
   <time name="orth">    0.81    0.81</time>
   <time name="total">   14.13   14.17</time>
   <energy>
    <i name="e_fr_energy">   -637.13421977 </i>
    <i name="e_wo_entrp">   -637.06579670 </i>
    <i name="e_0_energy">   -637.10000824 </i>
   </energy>
  </scstep>
  <scstep>
   <time name="diag">    3.36    3.37</time>
   <time name="diis">    9.02    9.05</time>
   <time name="orth">    0.81    0.81</time>
   <time name="total">   14.10   14.14</time>
   <energy>
    <i name="e_fr_energy">   -637.14944184 </i>
    <i name="e_wo_entrp">   -637.08106721 </i>
    <i name="e_0_energy">   -637.11525452 </i>
   </energy>
  </scstep>
  <scstep>
   <time name="diag">    3.36    3.37</time>
   <time name="diis">    9.02    9.05</time>
   <time name="orth">    0.81    0.81</time>
   <time name="total">   14.10   14.14</time>
   <energy>
    <i name="e_fr_energy">   -637.15495177 </i>
    <i name="e_wo_entrp">   -637.08657956 </i>
    <i name="e_0_energy">   -637.12076566 </i>
   </energy>
  </scstep>
  <scstep>
   <time name="diag">    3.38    3.39</time>
   <time name="diis">    8.99    9.01</time>
   <time name="orth">    0.81    0.81</time>
   <time name="total">   14.09   14.14</time>
   <energy>
    <i name="e_fr_energy">   -637.16017851 </i>
    <i name="e_wo_entrp">   -637.09176721 </i>
    <i name="e_0_energy">   -637.12597286 </i>
   </energy>
  </scstep>
  <scstep>
   <time name="diag">    3.36    3.37</time>
   <time name="diis">    8.93    8.97</time>
   <time name="orth">    0.81    0.82</time>
   <time name="total">   14.01   14.06</time>
   <energy>
    <i name="e_fr_energy">   -637.16263187 </i>
    <i name="e_wo_entrp">   -637.09417177 </i>
    <i name="e_0_energy">   -637.12840182 </i>
   </energy>
  </scstep>
  <scstep>
   <time name="diag">    3.38    3.39</time>
   <time name="diis">    8.98    9.01</time>
   <time name="orth">    0.81    0.81</time>
   <time name="total">   14.08   14.12</time>
   <energy>
    <i name="e_fr_energy">   -637.16537957 </i>
    <i name="e_wo_entrp">   -637.09688053 </i>
    <i name="e_0_energy">   -637.13113005 </i>
   </energy>
  </scstep>
  <scstep>
   <time name="diag">    3.35    3.36</time>
   <time name="diis">    8.96    8.98</time>
   <time name="orth">    0.81    0.82</time>
   <time name="total">   14.03   14.08</time>
   <energy>
    <i name="e_fr_energy">   -637.16631850 </i>
    <i name="e_wo_entrp">   -637.09777775 </i>
    <i name="e_0_energy">   -637.13204813 </i>
   </energy>
  </scstep>
  <scstep>
   <time name="diag">    3.36    3.37</time>
   <time name="diis">    8.58    8.60</time>
   <time name="orth">    0.81    0.81</time>
   <time name="total">   13.66   13.69</time>
   <energy>
    <i name="e_fr_energy">   -637.16654419 </i>
    <i name="e_wo_entrp">   -637.09798210 </i>
    <i name="e_0_energy">   -637.13226315 </i>
   </energy>
  </scstep>
  <scstep>
   <time name="diag">    3.36    3.37</time>
   <time name="diis">    8.67    8.69</time>
   <time name="orth">    0.81    0.81</time>
   <time name="total">   13.75   13.79</time>
   <energy>
    <i name="e_fr_energy">   -637.16628162 </i>
    <i name="e_wo_entrp">   -637.09772402 </i>
    <i name="e_0_energy">   -637.13200282 </i>
   </energy>
  </scstep>
  <scstep>
   <time name="diag">    3.37    3.38</time>
   <time name="diis">    7.20    7.22</time>
   <time name="orth">    0.81    0.81</time>
   <time name="total">   12.28   12.32</time>
   <energy>
    <i name="e_fr_energy">   -637.16645214 </i>
    <i name="e_wo_entrp">   -637.09788497 </i>
    <i name="e_0_energy">   -637.13216856 </i>
   </energy>
  </scstep>
  <scstep>
   <time name="diag">    3.36    3.37</time>
   <time name="diis">    8.99    9.01</time>
   <time name="orth">    0.81    0.81</time>
   <time name="total">   13.29   13.33</time>
   <energy>
    <i name="alphaZ">   1826.57435200 </i>
    <i name="ewald"> 229990.83020026 </i>
    <i name="hartreedc">-276924.04001781 </i>
    <i name="XCdc">   1352.25041806 </i>
    <i name="pawpsdc">  62289.12250939 </i>
    <i name="pawaedc"> -61186.48139219 </i>
    <i name="eentropy">     -0.06865989 </i>
    <i name="bandstr">  -5283.41183495 </i>
    <i name="atom">  47298.05697971 </i>
    <i name="e_fr_energy">   -637.16744543 </i>
    <i name="e_wo_entrp">   -637.09878554 </i>
    <i name="e_0_energy">   -637.13311548 </i>
   </energy>
  </scstep>
  <structure>
   <crystal>
    <varray name="basis" >
     <v>      12.80853200       0.00000000       0.00000000 </v>
     <v>       0.00000000       6.47024300       0.00000000 </v>
     <v>       0.00000000       0.00000000      25.88097200 </v>
    </varray>
    <i name="volume">   2144.86781344 </i>
    <varray name="rec_basis" >
     <v>       0.07807296       0.00000000       0.00000000 </v>
     <v>       0.00000000       0.15455370       0.00000000 </v>
     <v>       0.00000000       0.00000000       0.03863843 </v>
    </varray>
   </crystal>
   <varray name="positions" >
    <v>       0.12500000       0.50000000       0.18750000 </v>
    <v>       0.37500000       0.50000000       0.18750000 </v>
    <v>       0.12500000       0.00000000       0.06250000 </v>
    <v>       0.37500000       0.00000000       0.06250000 </v>
    <v>       0.00000000       0.50000000       0.06250000 </v>
    <v>       0.25000000       0.50000000       0.06250000 </v>
    <v>       0.00000000       0.00000000       0.18750000 </v>
    <v>       0.25000000       0.00000000       0.18750000 </v>
    <v>       0.12495358       0.50000000       0.43822722 </v>
    <v>       0.37528301       0.50000000       0.43889027 </v>
    <v>       0.12491797       0.00000000       0.31333534 </v>
    <v>       0.37407832       0.00000000       0.31261231 </v>
    <v>       0.00013754       0.50000000       0.31312950 </v>
    <v>       0.24978997       0.50000000       0.31310802 </v>
    <v>       0.99834185       0.00000000       0.44246842 </v>
    <v>       0.25116410       0.00000000       0.44250427 </v>
    <v>       0.00000000       0.50000000       0.13961000 </v>
    <v>       0.25000000       0.50000000       0.13961000 </v>
    <v>       0.00000000       0.00000000       0.01461000 </v>
    <v>       0.25000000       0.00000000       0.01461000 </v>
    <v>       0.12500000       0.80844000       0.18750000 </v>
    <v>       0.37500000       0.80844000       0.18750000 </v>
    <v>       0.12500000       0.30844000       0.06250000 </v>
    <v>       0.37500000       0.30844000       0.06250000 </v>
    <v>       0.00000000       0.50000000       0.23539000 </v>
    <v>       0.25000000       0.50000000       0.23539000 </v>
    <v>       0.00000000       0.00000000       0.11039000 </v>
    <v>       0.25000000       0.00000000       0.11039000 </v>
    <v>       0.12500000       0.19156000       0.18750000 </v>
    <v>       0.37500000       0.19156000       0.18750000 </v>
    <v>       0.12500000       0.69156000       0.06250000 </v>
    <v>       0.37500000       0.69156000       0.06250000 </v>
    <v>       0.99960605       0.50000000       0.38997101 </v>
    <v>       0.25042755       0.50000000       0.38987699 </v>
    <v>       0.00066420       0.00000000       0.26483556 </v>
    <v>       0.24920384       0.00000000       0.26481849 </v>
    <v>       0.12472199       0.80943992       0.43627761 </v>
    <v>       0.37797719       0.80914829       0.44052674 </v>
    <v>       0.12481955       0.30761370       0.31301001 </v>
    <v>       0.37461501       0.30768234       0.31232163 </v>
    <v>       0.00019828       0.50000000       0.48403086 </v>
    <v>       0.24976880       0.50000000       0.48412231 </v>
    <v>       0.99919297       0.00000000       0.36157008 </v>
    <v>       0.25059014       0.00000000       0.36161674 </v>
    <v>       0.12472199       0.19056008       0.43627761 </v>
    <v>       0.37797719       0.19085171       0.44052674 </v>
    <v>       0.12481955       0.69238630       0.31301001 </v>
    <v>       0.37461501       0.69231766       0.31232163 </v>
    <v>       0.24697745       0.00000000       0.51187054 </v>
    <v>       0.00332291       0.00000000       0.51178617 </v>
    <v>       0.62500000       0.50000000       0.18750000 </v>
    <v>       0.87500000       0.50000000       0.18750000 </v>
    <v>       0.62500000       0.00000000       0.06250000 </v>
    <v>       0.87500000       0.00000000       0.06250000 </v>
    <v>       0.50000000       0.50000000       0.06250000 </v>
    <v>       0.75000000       0.50000000       0.06250000 </v>
    <v>       0.50000000       0.00000000       0.18750000 </v>
    <v>       0.75000000       0.00000000       0.18750000 </v>
    <v>       0.62484018       0.50000000       0.43603054 </v>
    <v>       0.87450313       0.50000000       0.43893052 </v>
    <v>       0.62480008       0.00000000       0.31314973 </v>
    <v>       0.87572494       0.00000000       0.31256965 </v>
    <v>       0.49953362       0.50000000       0.31261204 </v>
    <v>       0.75028429       0.50000000       0.31262850 </v>
    <v>       0.50550136       0.00000000       0.44007222 </v>
    <v>       0.74403122       0.00000000       0.43989820 </v>
    <v>       0.50000000       0.50000000       0.13961000 </v>
    <v>       0.75000000       0.50000000       0.13961000 </v>
    <v>       0.50000000       0.00000000       0.01461000 </v>
    <v>       0.75000000       0.00000000       0.01461000 </v>
    <v>       0.62500000       0.80844000       0.18750000 </v>
    <v>       0.87500000       0.80844000       0.18750000 </v>
    <v>       0.62500000       0.30844000       0.06250000 </v>
    <v>       0.87500000       0.30844000       0.06250000 </v>
    <v>       0.50000000       0.50000000       0.23539000 </v>
    <v>       0.75000000       0.50000000       0.23539000 </v>
    <v>       0.50000000       0.00000000       0.11039000 </v>
    <v>       0.75000000       0.00000000       0.11039000 </v>
    <v>       0.62500000       0.19156000       0.18750000 </v>
    <v>       0.87500000       0.19156000       0.18750000 </v>
    <v>       0.62500000       0.69156000       0.06250000 </v>
    <v>       0.87500000       0.69156000       0.06250000 </v>
    <v>       0.49827371       0.50000000       0.38891528 </v>
    <v>       0.75157917       0.50000000       0.38897461 </v>
    <v>       0.50002781       0.00000000       0.26495660 </v>
    <v>       0.74976504       0.00000000       0.26484206 </v>
    <v>       0.62473253       0.80491604       0.42842109 </v>
    <v>       0.87165083       0.80923615       0.44055647 </v>
    <v>       0.62472353       0.30805799       0.31229779 </v>
    <v>       0.87551403       0.30784247       0.31231711 </v>
    <v>       0.50247148       0.50000000       0.48298455 </v>
    <v>       0.74703961       0.50000000       0.48308245 </v>
    <v>       0.49605454       0.00000000       0.36052876 </v>
    <v>       0.75334946       0.00000000       0.36040022 </v>
    <v>       0.62473253       0.19508396       0.42842109 </v>
    <v>       0.87165083       0.19076385       0.44055647 </v>
    <v>       0.62472353       0.69194201       0.31229779 </v>
    <v>       0.87551403       0.69215753       0.31231711 </v>
    <v>       0.69145430       0.00000000       0.50843635 </v>
    <v>       0.55866095       0.00000000       0.50859813 </v>
   </varray>
  </structure>
  <varray name="forces" >
   <v>      -0.00703522      -0.00000000      -0.31897795 </v>
   <v>       0.02371013      -0.00000000      -0.31788618 </v>
   <v>      -0.01005458      -0.00000000      -0.94099135 </v>
   <v>      -0.00294310      -0.00000000      -0.94937628 </v>
   <v>       0.00358469      -0.00000000       1.57856596 </v>
   <v>       0.00103983      -0.00000000       1.59101329 </v>
   <v>       0.07753440      -0.00000000      -0.07176453 </v>
   <v>      -0.08182327      -0.00000000      -0.07521115 </v>
   <v>      -0.00579819      -0.00000000       0.00088409 </v>
   <v>      -0.00480748      -0.00000000      -0.00090377 </v>
   <v>      -0.00539659      -0.00000000       0.00465775 </v>
   <v>      -0.00906675      -0.00000000      -0.00813375 </v>
   <v>       0.00270092      -0.00000000      -0.00183297 </v>
   <v>      -0.00508878      -0.00000000       0.00151743 </v>
   <v>      -0.00266954      -0.00000000       0.01477955 </v>
   <v>      -0.00264101      -0.00000000       0.01105954 </v>
   <v>       0.00027834      -0.00000000      -0.09828905 </v>
   <v>       0.00161090      -0.00000000      -0.10331992 </v>
   <v>      -0.01291055      -0.00000000       0.82887374 </v>
   <v>       0.01826736      -0.00000000       0.81975725 </v>
   <v>      -0.05164678      -0.03610036      -0.05003123 </v>
   <v>       0.05041748      -0.01860290      -0.02727744 </v>
   <v>      -0.05131224      -0.07882706      -0.67399991 </v>
   <v>       0.05920197      -0.07205279      -0.67516686 </v>
   <v>       0.03302655      -0.00000000       0.37434984 </v>
   <v>      -0.03414356      -0.00000000       0.37534152 </v>
   <v>      -0.01496559      -0.00000000       0.20886202 </v>
   <v>       0.02226203      -0.00000000       0.21281867 </v>
   <v>      -0.05164678       0.03610036      -0.05003123 </v>
   <v>       0.05041748       0.01860290      -0.02727744 </v>
   <v>      -0.05131224       0.07882706      -0.67399991 </v>
   <v>       0.05920197       0.07205279      -0.67516686 </v>
   <v>      -0.00054680      -0.00000000       0.03156593 </v>
   <v>       0.00872063      -0.00000000       0.01683288 </v>
   <v>       0.00159546      -0.00000000      -0.00026717 </v>
   <v>      -0.01097076      -0.00000000       0.00442465 </v>
   <v>      -0.00079472      -0.00268298       0.00932610 </v>
   <v>      -0.00796503      -0.00266191       0.00884110 </v>
   <v>      -0.00535102      -0.00075968       0.00668317 </v>
   <v>      -0.00372562      -0.00400292      -0.00748210 </v>
   <v>      -0.00705776      -0.00000000       0.01953575 </v>
   <v>       0.00365031      -0.00000000       0.00265375 </v>
   <v>      -0.00658048      -0.00000000       0.00050679 </v>
   <v>      -0.01625489      -0.00000000      -0.01604388 </v>
   <v>      -0.00079472       0.00268298       0.00932610 </v>
   <v>      -0.00796503       0.00266191       0.00884110 </v>
   <v>      -0.00535102       0.00075968       0.00668317 </v>
   <v>      -0.00372562       0.00400292      -0.00748210 </v>
   <v>      -0.00649271      -0.00000000       0.00464591 </v>
   <v>       0.01876532      -0.00000000       0.00589851 </v>
   <v>      -0.00613009      -0.00000000      -0.32840747 </v>
   <v>       0.00467186      -0.00000000      -0.31428533 </v>
   <v>      -0.00898810      -0.00000000      -0.94433154 </v>
   <v>       0.02870919      -0.00000000      -0.95004474 </v>
   <v>       0.00670579      -0.00000000       1.59796750 </v>
   <v>      -0.00246795      -0.00000000       1.61176728 </v>
   <v>       0.05781864      -0.00000000      -0.08590507 </v>
   <v>      -0.06684799      -0.00000000      -0.11076553 </v>
   <v>       0.00321515      -0.00000000      -0.01791615 </v>
   <v>       0.00503559      -0.00000000       0.00120548 </v>
   <v>      -0.00632269      -0.00000000      -0.00729253 </v>
   <v>       0.00397293      -0.00000000      -0.00407638 </v>
   <v>      -0.00007721      -0.00000000      -0.00174425 </v>
   <v>       0.00262974      -0.00000000       0.00211964 </v>
   <v>       0.01353801      -0.00000000      -0.02271885 </v>
   <v>       0.00857966      -0.00000000      -0.00979306 </v>
   <v>       0.00075282      -0.00000000      -0.12328015 </v>
   <v>       0.00206973      -0.00000000      -0.12856613 </v>
   <v>       0.02325390      -0.00000000       0.83168515 </v>
   <v>      -0.01841459      -0.00000000       0.82251742 </v>
   <v>      -0.05227750      -0.01230228      -0.03453705 </v>
   <v>       0.06044457      -0.01858755      -0.02826620 </v>
   <v>      -0.05105367      -0.05594639      -0.67878518 </v>
   <v>       0.05184218      -0.07199997      -0.67482586 </v>
   <v>       0.01102469      -0.00000000       0.19429741 </v>
   <v>      -0.01865790      -0.00000000       0.20797094 </v>
   <v>      -0.01648916      -0.00000000       0.18833769 </v>
   <v>       0.02528135      -0.00000000       0.19025234 </v>
   <v>      -0.05227750       0.01230228      -0.03453705 </v>
   <v>       0.06044457       0.01858755      -0.02826620 </v>
   <v>      -0.05105367       0.05594639      -0.67878518 </v>
   <v>       0.05184218       0.07199997      -0.67482586 </v>
   <v>       0.00731126      -0.00000000      -0.00026512 </v>
   <v>      -0.00459793      -0.00000000      -0.00851046 </v>
   <v>      -0.00883039      -0.00000000       0.00380227 </v>
   <v>      -0.00577526      -0.00000000      -0.00211263 </v>
   <v>       0.00829020      -0.01318959      -0.02246791 </v>
   <v>       0.00151319      -0.00163761      -0.00123424 </v>
   <v>      -0.00224835       0.00194820      -0.00267236 </v>
   <v>      -0.00170383      -0.00123186       0.00361845 </v>
   <v>      -0.01034399      -0.00000000      -0.01265701 </v>
   <v>       0.00213798      -0.00000000      -0.00808638 </v>
   <v>      -0.01340154      -0.00000000      -0.02404300 </v>
   <v>      -0.00388275      -0.00000000      -0.00034978 </v>
   <v>       0.00829020       0.01318959      -0.02246791 </v>
   <v>       0.00151319       0.00163761      -0.00123424 </v>
   <v>      -0.00224835      -0.00194820      -0.00267236 </v>
   <v>      -0.00170383       0.00123186       0.00361845 </v>
   <v>      -0.00444139      -0.00000000      -0.01956054 </v>
   <v>       0.01219976      -0.00000000      -0.03620287 </v>
  </varray>
  <varray name="stress" >
   <v>     -20.81311855       0.00000000       0.09536817 </v>
   <v>       0.00000000      -5.76041730       0.00000000 </v>
   <v>       0.09536829       0.00000000      -5.45094659 </v>
[...]
       <r>    -9.8275     0.0000    68.0000 </r>
       <r>    -9.7161     0.0010    68.0001 </r>
       <r>    -9.6047     1.0486    68.1169 </r>
       <r>    -9.4932     7.5188    68.9547 </r>
       <r>    -9.3818     3.3779    69.3310 </r>
       <r>    -9.2704     3.9806    69.7745 </r>
       <r>    -9.1590    10.2980    70.9219 </r>
       <r>    -9.0476     2.9719    71.2530 </r>
       <r>    -8.9362    12.4318    72.6381 </r>
       <r>    -8.8247    11.9965    73.9747 </r>
       <r>    -8.7133    16.2493    75.7851 </r>
       <r>    -8.6019    20.3356    78.0508 </r>
       <r>    -8.4905    16.3971    79.8777 </r>
       <r>    -8.3791    22.0180    82.3308 </r>
       <r>    -8.2677    32.1244    85.9100 </r>
       <r>    -8.1563    33.5034    89.6428 </r>
       <r>    -8.0448    33.6725    93.3944 </r>
       <r>    -7.9334    45.5483    98.4692 </r>
       <r>    -7.8220    59.8360   105.1359 </r>
       <r>    -7.7106    58.9714   111.7062 </r>
       <r>    -7.5992    50.2673   117.3068 </r>
       <r>    -7.4878    31.4519   120.8110 </r>
       <r>    -7.3763    28.7168   124.0105 </r>
       <r>    -7.2649    26.9843   127.0170 </r>
       <r>    -7.1535    24.7437   129.7738 </r>
       <r>    -7.0421    26.7138   132.7501 </r>
       <r>    -6.9307    28.8238   135.9616 </r>
       <r>    -6.8193    31.8068   139.5053 </r>
       <r>    -6.7079    24.8311   142.2719 </r>
       <r>    -6.5964    19.9126   144.4905 </r>
       <r>    -6.4850    17.2914   146.4170 </r>
       <r>    -6.3736    25.0808   149.2114 </r>
       <r>    -6.2622    31.3338   152.7025 </r>
       <r>    -6.1508    28.6169   155.8909 </r>
       <r>    -6.0394    30.3541   159.2728 </r>
       <r>    -5.9279    29.9125   162.6055 </r>
       <r>    -5.8165    34.2234   166.4185 </r>
       <r>    -5.7051    41.7595   171.0712 </r>
       <r>    -5.5937    48.1365   176.4343 </r>
       <r>    -5.4823    36.5493   180.5065 </r>
       <r>    -5.3709    39.0194   184.8539 </r>
       <r>    -5.2594    41.3818   189.4644 </r>
       <r>    -5.1480    42.3560   194.1836 </r>
       <r>    -5.0366    33.8579   197.9559 </r>
       <r>    -4.9252    32.7787   201.6079 </r>
       <r>    -4.8138    45.1420   206.6374 </r>
       <r>    -4.7024    41.7273   211.2865 </r>
       <r>    -4.5910    27.4592   214.3459 </r>
       <r>    -4.4795    29.1929   217.5984 </r>
       <r>    -4.3681    25.7829   220.4710 </r>
       <r>    -4.2567    28.7609   223.6754 </r>
       <r>    -4.1453    29.5856   226.9717 </r>
       <r>    -4.0339    28.2258   230.1165 </r>
       <r>    -3.9225    38.1275   234.3645 </r>
       <r>    -3.8110    39.2366   238.7361 </r>
       <r>    -3.6996    29.5618   242.0298 </r>
       <r>    -3.5882    24.4636   244.7554 </r>
       <r>    -3.4768    29.4766   248.0395 </r>
       <r>    -3.3654    31.0018   251.4936 </r>
       <r>    -3.2540    26.3320   254.4274 </r>
       <r>    -3.1426    36.9150   258.5403 </r>
       <r>    -3.0311    29.9028   261.8720 </r>
       <r>    -2.9197    24.4357   264.5945 </r>
       <r>    -2.8083    20.8103   266.9131 </r>
       <r>    -2.6969    19.8880   269.1289 </r>
       <r>    -2.5855    12.7912   270.5540 </r>
       <r>    -2.4741    18.3821   272.6021 </r>
       <r>    -2.3626    29.7222   275.9136 </r>
       <r>    -2.2512    35.4212   279.8601 </r>
       <r>    -2.1398    40.2558   284.3452 </r>
       <r>    -2.0284    59.6266   290.9885 </r>
       <r>    -1.9170    54.4783   297.0583 </r>
       <r>    -1.8056    43.4856   301.9032 </r>
       <r>    -1.6941    47.7407   307.2223 </r>
       <r>    -1.5827    46.5714   312.4111 </r>
       <r>    -1.4713    40.2907   316.9001 </r>
       <r>    -1.3599    35.5820   320.8645 </r>
       <r>    -1.2485    19.0414   322.9860 </r>
       <r>    -1.1371    19.9886   325.2130 </r>
       <r>    -1.0257    30.4958   328.6107 </r>
       <r>    -0.9142    30.4831   332.0070 </r>
       <r>    -0.8028    22.3320   334.4951 </r>
       <r>    -0.6914    30.1920   337.8590 </r>
       <r>    -0.5800    34.4811   341.7007 </r>
       <r>    -0.4686    28.3900   344.8638 </r>
       <r>    -0.3572    23.9911   347.5368 </r>
       <r>    -0.2457    33.2962   351.2465 </r>
       <r>    -0.1343    31.7926   354.7887 </r>
       <r>    -0.0229    28.0622   357.9153 </r>
       <r>     0.0885    29.8532   361.2414 </r>
       <r>     0.1999    22.9448   363.7978 </r>
       <r>     0.3113    26.4144   366.7408 </r>
       <r>     0.4227    20.7535   369.0530 </r>
       <r>     0.5342    12.6606   370.4636 </r>
       <r>     0.6456     4.6577   370.9826 </r>
       <r>     0.7570    12.6719   372.3944 </r>
       <r>     0.8684     8.4397   373.3347 </r>
       <r>     0.9798    10.3984   374.4933 </r>
       <r>     1.0912    12.6806   375.9061 </r>
       <r>     1.2027    18.5464   377.9724 </r>
       <r>     1.3141     9.0869   378.9849 </r>
       <r>     1.4255     8.8449   379.9703 </r>
       <r>     1.5369    14.4663   381.5821 </r>
       <r>     1.6483    14.0982   383.1529 </r>
       <r>     1.7597    15.0963   384.8348 </r>
       <r>     1.8711    12.9858   386.2816 </r>
       <r>     1.9826    16.6944   388.1416 </r>
       <r>     2.0940    23.7467   390.7874 </r>
       <r>     2.2054    21.9127   393.2288 </r>
       <r>     2.3168    24.7118   395.9821 </r>
       <r>     2.4282    13.6320   397.5009 </r>
       <r>     2.5396    14.9484   399.1664 </r>
       <r>     2.6511    21.6094   401.5740 </r>
       <r>     2.7625    17.7625   403.5530 </r>
       <r>     2.8739    14.9402   405.2176 </r>
       <r>     2.9853    19.8437   407.4285 </r>
       <r>     3.0967    23.0059   409.9917 </r>
       <r>     3.2081    31.5650   413.5085 </r>
       <r>     3.3196    26.4827   416.4591 </r>
       <r>     3.4310    17.6971   418.4309 </r>
       <r>     3.5424    19.0807   420.5567 </r>
       <r>     3.6538    24.7366   423.3128 </r>
       <r>     3.7652    33.5727   427.0533 </r>
       <r>     3.8766    18.3117   429.0935 </r>
       <r>     3.9880    10.2616   430.2368 </r>
       <r>     4.0995     3.8247   430.6630 </r>
       <r>     4.2109     8.4767   431.6074 </r>
       <r>     4.3223     3.1392   431.9571 </r>
       <r>     4.4337     1.2818   432.0999 </r>
       <r>     4.5451     4.7413   432.6282 </r>
       <r>     4.6565     3.2984   432.9957 </r>
       <r>     4.7680     5.0132   433.5542 </r>
       <r>     4.8794     3.9640   433.9959 </r>
       <r>     4.9908     0.0766   434.0044 </r>
       <r>     5.1022     2.9024   434.3278 </r>
       <r>     5.2136     4.8643   434.8698 </r>
       <r>     5.3250     6.1173   435.5513 </r>
       <r>     5.4364     1.0312   435.6662 </r>
       <r>     5.5479     1.5289   435.8366 </r>
       <r>     5.6593     1.8541   436.0431 </r>
       <r>     5.7707     4.9671   436.5965 </r>
       <r>     5.8821     5.6710   437.2284 </r>
       <r>     5.9935     6.0839   437.9062 </r>
       <r>     6.1049     2.8844   438.2276 </r>
       <r>     6.2164     4.8204   438.7647 </r>
       <r>     6.3278     6.8101   439.5234 </r>
       <r>     6.4392    10.8645   440.7339 </r>
       <r>     6.5506    10.1890   441.8691 </r>
       <r>     6.6620     8.1482   442.7769 </r>
       <r>     6.7734     4.8858   443.3213 </r>
       <r>     6.8848     5.1886   443.8994 </r>
       <r>     6.9963    11.3133   445.1599 </r>
       <r>     7.1077     9.3472   446.2013 </r>
       <r>     7.2191     7.4957   447.0364 </r>
       <r>     7.3305     9.6292   448.1093 </r>
       <r>     7.4419    12.5485   449.5074 </r>
       <r>     7.5533    10.1570   450.6390 </r>
       <r>     7.6648    12.1062   451.9878 </r>
       <r>     7.7762    18.5188   454.0511 </r>
       <r>     7.8876    13.8665   455.5961 </r>
       <r>     7.9990    14.3758   457.1978 </r>
       <r>     8.1104    11.3910   458.4669 </r>
       <r>     8.2218    18.4553   460.5231 </r>
       <r>     8.3333    14.9926   462.1935 </r>
       <r>     8.4447    18.8520   464.2939 </r>
       <r>     8.5561    15.5763   466.0294 </r>
       <r>     8.6675    18.9916   468.1453 </r>
       <r>     8.7789    22.1546   470.6137 </r>
       <r>     8.8903    24.8778   473.3854 </r>
       <r>     9.0017    25.0695   476.1786 </r>
       <r>     9.1132    18.4594   478.2352 </r>
       <r>     9.2246    12.4841   479.6262 </r>
       <r>     9.3360     3.3289   479.9971 </r>
       <r>     9.4474     0.0264   480.0000 </r>
       <r>     9.5588     0.0000   480.0000 </r>
       <r>     9.6702     0.0000   480.0000 </r>
       <r>     9.7817     0.0000   480.0000 </r>
       <r>     9.8931     0.0000   480.0000 </r>
       <r>    10.0045     0.0000   480.0000 </r>
       <r>    10.1159     0.0000   480.0000 </r>
       <r>    10.2273     0.0000   480.0000 </r>
       <r>    10.3387     0.0000   480.0000 </r>
       <r>    10.4501     0.0000   480.0000 </r>
       <r>    10.5616     0.0000   480.0000 </r>
       <r>    10.6730     0.0000   480.0000 </r>
       <r>    10.7844     0.0000   480.0000 </r>
      </set>
     </set>
    </array>
   </total>
  </dos>
 </calculation>
 <structure name="finalpos" >
  <crystal>
   <varray name="basis" >
    <v>      12.80853200       0.00000000       0.00000000 </v>
    <v>       0.00000000       6.47024300       0.00000000 </v>
    <v>       0.00000000       0.00000000      25.88097200 </v>
   </varray>
   <i name="volume">   2144.86781344 </i>
   <varray name="rec_basis" >
    <v>       0.07807296       0.00000000       0.00000000 </v>
    <v>       0.00000000       0.15455370       0.00000000 </v>
    <v>       0.00000000       0.00000000       0.03863843 </v>
   </varray>
  </crystal>
  <varray name="positions" >
   <v>       0.12500000       0.50000000       0.18750000 </v>
   <v>       0.37500000       0.50000000       0.18750000 </v>
   <v>       0.12500000       0.00000000       0.06250000 </v>
   <v>       0.37500000       0.00000000       0.06250000 </v>
   <v>       0.00000000       0.50000000       0.06250000 </v>
   <v>       0.25000000       0.50000000       0.06250000 </v>
   <v>       0.00000000       0.00000000       0.18750000 </v>
   <v>       0.25000000       0.00000000       0.18750000 </v>
   <v>       0.12495358       0.50000000       0.43822722 </v>
   <v>       0.37528301       0.50000000       0.43889027 </v>
   <v>       0.12491797       0.00000000       0.31333534 </v>
   <v>       0.37407832       0.00000000       0.31261231 </v>
   <v>       0.00013754       0.50000000       0.31312950 </v>
   <v>       0.24978997       0.50000000       0.31310802 </v>
   <v>       0.99834185       0.00000000       0.44246842 </v>
   <v>       0.25116410       0.00000000       0.44250427 </v>
   <v>       0.00000000       0.50000000       0.13961000 </v>
   <v>       0.25000000       0.50000000       0.13961000 </v>
   <v>       0.00000000       0.00000000       0.01461000 </v>
   <v>       0.25000000       0.00000000       0.01461000 </v>
   <v>       0.12500000       0.80844000       0.18750000 </v>
   <v>       0.37500000       0.80844000       0.18750000 </v>
   <v>       0.12500000       0.30844000       0.06250000 </v>
   <v>       0.37500000       0.30844000       0.06250000 </v>
   <v>       0.00000000       0.50000000       0.23539000 </v>
   <v>       0.25000000       0.50000000       0.23539000 </v>
   <v>       0.00000000       0.00000000       0.11039000 </v>
   <v>       0.25000000       0.00000000       0.11039000 </v>
   <v>       0.12500000       0.19156000       0.18750000 </v>
   <v>       0.37500000       0.19156000       0.18750000 </v>
   <v>       0.12500000       0.69156000       0.06250000 </v>
   <v>       0.37500000       0.69156000       0.06250000 </v>
   <v>       0.99960605       0.50000000       0.38997101 </v>
   <v>       0.25042755       0.50000000       0.38987699 </v>
   <v>       0.00066420       0.00000000       0.26483556 </v>
   <v>       0.24920384       0.00000000       0.26481849 </v>
   <v>       0.12472199       0.80943992       0.43627761 </v>
   <v>       0.37797719       0.80914829       0.44052674 </v>
   <v>       0.12481955       0.30761370       0.31301001 </v>
   <v>       0.37461501       0.30768234       0.31232163 </v>
   <v>       0.00019828       0.50000000       0.48403086 </v>
   <v>       0.24976880       0.50000000       0.48412231 </v>
   <v>       0.99919297       0.00000000       0.36157008 </v>
   <v>       0.25059014       0.00000000       0.36161674 </v>
   <v>       0.12472199       0.19056008       0.43627761 </v>
   <v>       0.37797719       0.19085171       0.44052674 </v>
   <v>       0.12481955       0.69238630       0.31301001 </v>
   <v>       0.37461501       0.69231766       0.31232163 </v>
   <v>       0.24697745       0.00000000       0.51187054 </v>
   <v>       0.00332291       0.00000000       0.51178617 </v>
   <v>       0.62500000       0.50000000       0.18750000 </v>
   <v>       0.87500000       0.50000000       0.18750000 </v>
   <v>       0.62500000       0.00000000       0.06250000 </v>
   <v>       0.87500000       0.00000000       0.06250000 </v>
   <v>       0.50000000       0.50000000       0.06250000 </v>
   <v>       0.75000000       0.50000000       0.06250000 </v>
   <v>       0.50000000       0.00000000       0.18750000 </v>
   <v>       0.75000000       0.00000000       0.18750000 </v>
   <v>       0.62484018       0.50000000       0.43603054 </v>
   <v>       0.87450313       0.50000000       0.43893052 </v>
   <v>       0.62480008       0.00000000       0.31314973 </v>
   <v>       0.87572494       0.00000000       0.31256965 </v>
   <v>       0.49953362       0.50000000       0.31261204 </v>
   <v>       0.75028429       0.50000000       0.31262850 </v>
   <v>       0.50550136       0.00000000       0.44007222 </v>
   <v>       0.74403122       0.00000000       0.43989820 </v>
   <v>       0.50000000       0.50000000       0.13961000 </v>
   <v>       0.75000000       0.50000000       0.13961000 </v>
   <v>       0.50000000       0.00000000       0.01461000 </v>
   <v>       0.75000000       0.00000000       0.01461000 </v>
   <v>       0.62500000       0.80844000       0.18750000 </v>
   <v>       0.87500000       0.80844000       0.18750000 </v>
   <v>       0.62500000       0.30844000       0.06250000 </v>
   <v>       0.87500000       0.30844000       0.06250000 </v>
   <v>       0.50000000       0.50000000       0.23539000 </v>
   <v>       0.75000000       0.50000000       0.23539000 </v>
   <v>       0.50000000       0.00000000       0.11039000 </v>
   <v>       0.75000000       0.00000000       0.11039000 </v>
   <v>       0.62500000       0.19156000       0.18750000 </v>
   <v>       0.87500000       0.19156000       0.18750000 </v>
   <v>       0.62500000       0.69156000       0.06250000 </v>
   <v>       0.87500000       0.69156000       0.06250000 </v>
   <v>       0.49827371       0.50000000       0.38891528 </v>
   <v>       0.75157917       0.50000000       0.38897461 </v>
   <v>       0.50002781       0.00000000       0.26495660 </v>
   <v>       0.74976504       0.00000000       0.26484206 </v>
   <v>       0.62473253       0.80491604       0.42842109 </v>
   <v>       0.87165083       0.80923615       0.44055647 </v>
   <v>       0.62472353       0.30805799       0.31229779 </v>
   <v>       0.87551403       0.30784247       0.31231711 </v>
   <v>       0.50247148       0.50000000       0.48298455 </v>
   <v>       0.74703961       0.50000000       0.48308245 </v>
   <v>       0.49605454       0.00000000       0.36052876 </v>
   <v>       0.75334946       0.00000000       0.36040022 </v>
   <v>       0.62473253       0.19508396       0.42842109 </v>
   <v>       0.87165083       0.19076385       0.44055647 </v>
   <v>       0.62472353       0.69194201       0.31229779 </v>
   <v>       0.87551403       0.69215753       0.31231711 </v>
   <v>       0.69145430       0.00000000       0.50843635 </v>
   <v>       0.55866095       0.00000000       0.50801856 </v>
  </varray>
  <varray name="selective"  type="logical" >
   <v type="logical" >  F  F  F </v>
   <v type="logical" >  F  F  F </v>
   <v type="logical" >  F  F  F </v>
   <v type="logical" >  F  F  F </v>
   <v type="logical" >  F  F  F </v>
   <v type="logical" >  F  F  F </v>
   <v type="logical" >  F  F  F </v>
   <v type="logical" >  F  F  F </v>
   <v type="logical" >  F  F  F </v>
   <v type="logical" >  F  F  F </v>
   <v type="logical" >  F  F  F </v>
   <v type="logical" >  F  F  F </v>
   <v type="logical" >  F  F  F </v>
   <v type="logical" >  F  F  F </v>
   <v type="logical" >  F  F  F </v>
   <v type="logical" >  F  F  F </v>
   <v type="logical" >  F  F  F </v>
   <v type="logical" >  F  F  F </v>
   <v type="logical" >  F  F  F </v>
   <v type="logical" >  F  F  F </v>
   <v type="logical" >  F  F  F </v>
   <v type="logical" >  F  F  F </v>
   <v type="logical" >  F  F  F </v>
   <v type="logical" >  F  F  F </v>
   <v type="logical" >  F  F  F </v>
   <v type="logical" >  F  F  F </v>
   <v type="logical" >  F  F  F </v>
   <v type="logical" >  F  F  F </v>
   <v type="logical" >  F  F  F </v>
   <v type="logical" >  F  F  F </v>
   <v type="logical" >  F  F  F </v>
   <v type="logical" >  F  F  F </v>
   <v type="logical" >  F  F  F </v>
   <v type="logical" >  F  F  F </v>
   <v type="logical" >  F  F  F </v>
   <v type="logical" >  F  F  F </v>
   <v type="logical" >  F  F  F </v>
   <v type="logical" >  F  F  F </v>
   <v type="logical" >  F  F  F </v>
   <v type="logical" >  F  F  F </v>
   <v type="logical" >  F  F  F </v>
   <v type="logical" >  F  F  F </v>
   <v type="logical" >  F  F  F </v>
   <v type="logical" >  F  F  F </v>
   <v type="logical" >  F  F  F </v>
   <v type="logical" >  F  F  F </v>
   <v type="logical" >  F  F  F </v>
   <v type="logical" >  F  F  F </v>
   <v type="logical" >  F  F  F </v>
   <v type="logical" >  F  F  F </v>
   <v type="logical" >  F  F  F </v>
   <v type="logical" >  F  F  F </v>
   <v type="logical" >  F  F  F </v>
   <v type="logical" >  F  F  F </v>
   <v type="logical" >  F  F  F </v>
   <v type="logical" >  F  F  F </v>
   <v type="logical" >  F  F  F </v>
   <v type="logical" >  F  F  F </v>
   <v type="logical" >  F  F  F </v>
   <v type="logical" >  F  F  F </v>
   <v type="logical" >  F  F  F </v>
   <v type="logical" >  F  F  F </v>
   <v type="logical" >  F  F  F </v>
   <v type="logical" >  F  F  F </v>
   <v type="logical" >  F  F  F </v>
   <v type="logical" >  F  F  F </v>
   <v type="logical" >  F  F  F </v>
   <v type="logical" >  F  F  F </v>
   <v type="logical" >  F  F  F </v>
   <v type="logical" >  F  F  F </v>
   <v type="logical" >  F  F  F </v>
   <v type="logical" >  F  F  F </v>
   <v type="logical" >  F  F  F </v>
   <v type="logical" >  F  F  F </v>
   <v type="logical" >  F  F  F </v>
   <v type="logical" >  F  F  F </v>
   <v type="logical" >  F  F  F </v>
   <v type="logical" >  F  F  F </v>
   <v type="logical" >  F  F  F </v>
   <v type="logical" >  F  F  F </v>
   <v type="logical" >  F  F  F </v>
   <v type="logical" >  F  F  F </v>
   <v type="logical" >  F  F  F </v>
   <v type="logical" >  F  F  F </v>
   <v type="logical" >  F  F  F </v>
   <v type="logical" >  F  F  F </v>
   <v type="logical" >  F  F  F </v>
   <v type="logical" >  F  F  F </v>
   <v type="logical" >  F  F  F </v>
   <v type="logical" >  F  F  F </v>
   <v type="logical" >  F  F  F </v>
   <v type="logical" >  F  F  F </v>
   <v type="logical" >  F  F  F </v>
   <v type="logical" >  F  F  F </v>
   <v type="logical" >  F  F  F </v>
   <v type="logical" >  F  F  F </v>
   <v type="logical" >  F  F  F </v>
   <v type="logical" >  F  F  F </v>
   <v type="logical" >  T  T  T </v>
   <v type="logical" >  T  T  T </v>
  </varray>
  <nose>
   <v>      -3.00000000       0.00000000       0.00010000       0.00010000 </v>
  </nose>
 </structure>
</modeling>
