 vasp.5.4.4.18Apr17-6-g9f103f2a35 (build Feb 25 2019 10:51:38) complex          
  
 executed on             LinuxIFC date 2023.03.14  11:40:25
 running on   40 total cores
 distrk:  each k-point on   40 cores,    1 groups
 distr:  one band on NCORES_PER_BAND=   1 cores,   40 groups


--------------------------------------------------------------------------------------------------------


 INCAR:
 POTCAR:    PAW_PBE Ir 06Sep2000                  
 POTCAR:    PAW_PBE O 08Apr2002                   
 POTCAR:    PAW_PBE Ir 06Sep2000                  
 POTCAR:    PAW_PBE O 08Apr2002                   

 ----------------------------------------------------------------------------- 
|                                                                             |
|           W    W    AA    RRRRR   N    N  II  N    N   GGGG   !!!           |
|           W    W   A  A   R    R  NN   N  II  NN   N  G    G  !!!           |
|           W    W  A    A  R    R  N N  N  II  N N  N  G       !!!           |
|           W WW W  AAAAAA  RRRRR   N  N N  II  N  N N  G  GGG   !            |
|           WW  WW  A    A  R   R   N   NN  II  N   NN  G    G                |
|           W    W  A    A  R    R  N    N  II  N    N   GGGG   !!!           |
|                                                                             |
|      For optimal performance we recommend to set                            |
|        NCORE= 4 - approx SQRT( number of cores)                             |
|      NCORE specifies how many cores store one orbital (NPAR=cpu/NCORE).     |
|      This setting can  greatly improve the performance of VASP for DFT.     |
|      The default,   NCORE=1            might be grossly inefficient         |
|      on modern multi-core architectures or massively parallel machines.     |
|      Do your own testing !!!!                                               |
|      Unfortunately you need to use the default for GW and RPA calculations. |
|      (for HF NCORE is supported but not extensively tested yet)             |
|                                                                             |
 ----------------------------------------------------------------------------- 

 POTCAR:    PAW_PBE Ir 06Sep2000                  
   VRHFIN =Ir: s1d8                                                             
   LEXCH  = PE                                                                  
   EATOM  =   560.1833 eV,   41.1723 Ry                                         
                                                                                
   TITEL  = PAW_PBE Ir 06Sep2000                                                
   LULTRA =        F    use ultrasoft PP ?                                      
   IUNSCR =        1    unscreen: 0-lin 1-nonlin 2-no                           
   RPACOR =    2.250    partial core radius                                     
   POMASS =  192.220; ZVAL   =    9.000    mass and valenz                      
   RCORE  =    2.600    outmost cutoff radius                                   
   RWIGS  =    2.690; RWIGS  =    1.423    wigner-seitz radius (au A)           
   ENMAX  =  210.864; ENMIN  =  158.148 eV                                      
   RCLOC  =    1.857    cutoff for local pot                                    
   LCOR   =        T    correct aug charges                                     
   LPAW   =        T    paw PP                                                  
   EAUG   =  318.962                                                            
   DEXC   =    0.000                                                            
   RMAX   =    2.667    core radius for proj-oper                               
   RAUG   =    1.300    factor for augmentation sphere                          
   RDEP   =    2.748    radius for radial grids                                 
   RDEPT  =    2.300    core radius for aug-charge                              
                                                                                
   Atomic configuration                                                         
   16 entries                                                                   
     n  l   j            E        occ.                                          
     1  0  0.50    -76100.0449   2.0000                                         
     2  0  0.50    -13308.1683   2.0000                                         
     2  1  1.50    -11558.0021   6.0000                                         
     3  0  0.50     -3110.7274   2.0000                                         
     3  1  1.50     -2599.2109   6.0000                                         
     3  2  2.50     -2037.1515  10.0000                                         
     4  0  0.50      -661.6001   2.0000                                         
     4  1  1.50      -493.8981   6.0000                                         
     4  2  2.50      -288.1909  10.0000                                         
     4  3  3.50       -59.5718  14.0000                                         
     5  0  0.50       -95.3879   2.0000                                         
     5  1  1.50       -52.2747   6.0000                                         
     5  2  2.50        -5.4180   8.0000                                         
     6  0  0.50        -5.5479   1.0000                                         
     6  1  1.50        -6.8029   0.0000                                         
     5  3  2.50        -1.3606   0.0000                                         
   Description                                                                  
     l       E           TYP  RCUT    TYP  RCUT                                 
     2     -5.4179967     23  2.600                                             
     2     -6.7785793     23  2.600                                             
     0     -5.5478636     23  2.600                                             
     0      2.2542272     23  2.600                                             
     1     -2.7211652     23  2.600                                             
     1     20.4087390     23  2.600                                             
  local pseudopotential read in
  partial core-charges read in
  partial kinetic energy density read in
  atomic valenz-charges read in
  non local Contribution for L=           2  read in
    real space projection operators read in
  non local Contribution for L=           2  read in
    real space projection operators read in
  non local Contribution for L=           0  read in
    real space projection operators read in
  non local Contribution for L=           0  read in
    real space projection operators read in
  non local Contribution for L=           1  read in
    real space projection operators read in
  non local Contribution for L=           1  read in
    real space projection operators read in
    PAW grid and wavefunctions read in
 
   number of l-projection  operators is LMAX  =           6
   number of lm-projection operators is LMMAX =          18
 
 POTCAR:    PAW_PBE O 08Apr2002                   
   VRHFIN =O: s2p4                                                              
   LEXCH  = PE                                                                  
   EATOM  =   432.3788 eV,   31.7789 Ry                                         
                                                                                
   TITEL  = PAW_PBE O 08Apr2002                                                 
   LULTRA =        F    use ultrasoft PP ?                                      
   IUNSCR =        1    unscreen: 0-lin 1-nonlin 2-no                           
   RPACOR =    1.200    partial core radius                                     
   POMASS =   16.000; ZVAL   =    6.000    mass and valenz                      
   RCORE  =    1.520    outmost cutoff radius                                   
   RWIGS  =    1.550; RWIGS  =    0.820    wigner-seitz radius (au A)           
   ENMAX  =  400.000; ENMIN  =  300.000 eV                                      
   ICORE  =        2    local potential                                         
   LCOR   =        T    correct aug charges                                     
   LPAW   =        T    paw PP                                                  
   EAUG   =  605.392                                                            
   DEXC   =    0.000                                                            
   RMAX   =    1.553    core radius for proj-oper                               
   RAUG   =    1.300    factor for augmentation sphere                          
   RDEP   =    1.550    radius for radial grids                                 
   RDEPT  =    1.329    core radius for aug-charge                              
                                                                                
   Atomic configuration                                                         
    4 entries                                                                   
     n  l   j            E        occ.                                          
     1  0  0.50      -514.6923   2.0000                                         
     2  0  0.50       -23.9615   2.0000                                         
     2  1  0.50        -9.0305   4.0000                                         
     3  2  1.50        -9.5241   0.0000                                         
   Description                                                                  
     l       E           TYP  RCUT    TYP  RCUT                                 
     0    -23.9615318     23  1.200                                             
     0     -9.5240782     23  1.200                                             
     1     -9.0304911     23  1.520                                             
     1      8.1634956     23  1.520                                             
     2     -9.5240782      7  1.500                                             
  local pseudopotential read in
  partial core-charges read in
  partial kinetic energy density read in
  kinetic energy density of atom read in
  atomic valenz-charges read in
  non local Contribution for L=           0  read in
    real space projection operators read in
  non local Contribution for L=           0  read in
    real space projection operators read in
  non local Contribution for L=           1  read in
    real space projection operators read in
  non local Contribution for L=           1  read in
    real space projection operators read in
    PAW grid and wavefunctions read in
 
   number of l-projection  operators is LMAX  =           4
   number of lm-projection operators is LMMAX =           8
 
 POTCAR:    PAW_PBE Ir 06Sep2000                  
   VRHFIN =Ir: s1d8                                                             
   LEXCH  = PE                                                                  
   EATOM  =   560.1833 eV,   41.1723 Ry                                         
                                                                                
   TITEL  = PAW_PBE Ir 06Sep2000                                                
   LULTRA =        F    use ultrasoft PP ?                                      
   IUNSCR =        1    unscreen: 0-lin 1-nonlin 2-no                           
   RPACOR =    2.250    partial core radius                                     
   POMASS =  192.220; ZVAL   =    9.000    mass and valenz                      
   RCORE  =    2.600    outmost cutoff radius                                   
   RWIGS  =    2.690; RWIGS  =    1.423    wigner-seitz radius (au A)           
   ENMAX  =  210.864; ENMIN  =  158.148 eV                                      
   RCLOC  =    1.857    cutoff for local pot                                    
   LCOR   =        T    correct aug charges                                     
   LPAW   =        T    paw PP                                                  
   EAUG   =  318.962                                                            
   DEXC   =    0.000                                                            
   RMAX   =    2.667    core radius for proj-oper                               
   RAUG   =    1.300    factor for augmentation sphere                          
   RDEP   =    2.748    radius for radial grids                                 
   RDEPT  =    2.300    core radius for aug-charge                              
                                                                                
   Atomic configuration                                                         
   16 entries                                                                   
     n  l   j            E        occ.                                          
     1  0  0.50    -76100.0449   2.0000                                         
     2  0  0.50    -13308.1683   2.0000                                         
     2  1  1.50    -11558.0021   6.0000                                         
     3  0  0.50     -3110.7274   2.0000                                         
     3  1  1.50     -2599.2109   6.0000                                         
     3  2  2.50     -2037.1515  10.0000                                         
     4  0  0.50      -661.6001   2.0000                                         
     4  1  1.50      -493.8981   6.0000                                         
     4  2  2.50      -288.1909  10.0000                                         
     4  3  3.50       -59.5718  14.0000                                         
     5  0  0.50       -95.3879   2.0000                                         
     5  1  1.50       -52.2747   6.0000                                         
     5  2  2.50        -5.4180   8.0000                                         
     6  0  0.50        -5.5479   1.0000                                         
     6  1  1.50        -6.8029   0.0000                                         
     5  3  2.50        -1.3606   0.0000                                         
   Description                                                                  
     l       E           TYP  RCUT    TYP  RCUT                                 
     2     -5.4179967     23  2.600                                             
     2     -6.7785793     23  2.600                                             
     0     -5.5478636     23  2.600                                             
     0      2.2542272     23  2.600                                             
     1     -2.7211652     23  2.600                                             
     1     20.4087390     23  2.600                                             
  local pseudopotential read in
  partial core-charges read in
  partial kinetic energy density read in
  atomic valenz-charges read in
  non local Contribution for L=           2  read in
    real space projection operators read in
  non local Contribution for L=           2  read in
    real space projection operators read in
  non local Contribution for L=           0  read in
    real space projection operators read in
  non local Contribution for L=           0  read in
    real space projection operators read in
  non local Contribution for L=           1  read in
    real space projection operators read in
  non local Contribution for L=           1  read in
    real space projection operators read in
    PAW grid and wavefunctions read in
 
   number of l-projection  operators is LMAX  =           6
   number of lm-projection operators is LMMAX =          18
 
 POTCAR:    PAW_PBE O 08Apr2002                   
   VRHFIN =O: s2p4                                                              
   LEXCH  = PE                                                                  
   EATOM  =   432.3788 eV,   31.7789 Ry                                         
                                                                                
   TITEL  = PAW_PBE O 08Apr2002                                                 
   LULTRA =        F    use ultrasoft PP ?                                      
   IUNSCR =        1    unscreen: 0-lin 1-nonlin 2-no                           
   RPACOR =    1.200    partial core radius                                     
   POMASS =   16.000; ZVAL   =    6.000    mass and valenz                      
   RCORE  =    1.520    outmost cutoff radius                                   
   RWIGS  =    1.550; RWIGS  =    0.820    wigner-seitz radius (au A)           
   ENMAX  =  400.000; ENMIN  =  300.000 eV                                      
   ICORE  =        2    local potential                                         
   LCOR   =        T    correct aug charges                                     
   LPAW   =        T    paw PP                                                  
   EAUG   =  605.392                                                            
   DEXC   =    0.000                                                            
   RMAX   =    1.553    core radius for proj-oper                               
   RAUG   =    1.300    factor for augmentation sphere                          
   RDEP   =    1.550    radius for radial grids                                 
   RDEPT  =    1.329    core radius for aug-charge                              
                                                                                
   Atomic configuration                                                         
    4 entries                                                                   
     n  l   j            E        occ.                                          
     1  0  0.50      -514.6923   2.0000                                         
     2  0  0.50       -23.9615   2.0000                                         
     2  1  0.50        -9.0305   4.0000                                         
     3  2  1.50        -9.5241   0.0000                                         
   Description                                                                  
     l       E           TYP  RCUT    TYP  RCUT                                 
     0    -23.9615318     23  1.200                                             
     0     -9.5240782     23  1.200                                             
     1     -9.0304911     23  1.520                                             
     1      8.1634956     23  1.520                                             
     2     -9.5240782      7  1.500                                             
  local pseudopotential read in
  partial core-charges read in
  partial kinetic energy density read in
  kinetic energy density of atom read in
  atomic valenz-charges read in
  non local Contribution for L=           0  read in
    real space projection operators read in
  non local Contribution for L=           0  read in
    real space projection operators read in
  non local Contribution for L=           1  read in
    real space projection operators read in
  non local Contribution for L=           1  read in
    real space projection operators read in
    PAW grid and wavefunctions read in
 
   number of l-projection  operators is LMAX  =           4
   number of lm-projection operators is LMMAX =           8
 
 Optimization of the real space projectors (new method)

 maximal supplied QI-value         = 14.36
 optimisation between [QCUT,QGAM] = [ 11.35, 22.84] = [ 36.05,146.02] Ry 
 Optimized for a Real-space Cutoff    1.52 Angstroem

   l    n(q)    QCUT    max X(q) W(low)/X(q) W(high)/X(q)  e(spline) 
   2      9    11.346   134.116    0.47E-03    0.13E-03    0.92E-06
   2      9    11.346   130.192    0.47E-03    0.13E-03    0.92E-06
   0     10    11.346    60.310    0.74E-04    0.13E-03    0.69E-06
   0     10    11.346    39.218    0.68E-04    0.12E-03    0.65E-06
   1     10    11.346    18.439    0.15E-03    0.34E-04    0.20E-06
   1     10    11.346    12.760    0.12E-03    0.31E-04    0.16E-06
 Optimization of the real space projectors (new method)

 maximal supplied QI-value         = 24.76
 optimisation between [QCUT,QGAM] = [ 11.39, 22.77] = [ 36.31,145.25] Ry 
 Optimized for a Real-space Cutoff    1.00 Angstroem

   l    n(q)    QCUT    max X(q) W(low)/X(q) W(high)/X(q)  e(spline) 
   0      7    11.387    20.381    0.39E-03    0.13E-02    0.15E-06
   0      7    11.387    15.268    0.42E-03    0.14E-02    0.17E-06
   1      6    11.387     5.964    0.41E-03    0.11E-02    0.17E-06
   1      6    11.387     5.382    0.39E-03    0.87E-03    0.15E-06
 Optimization of the real space projectors (new method)

 maximal supplied QI-value         = 14.36
 optimisation between [QCUT,QGAM] = [ 11.35, 22.84] = [ 36.05,146.02] Ry 
 Optimized for a Real-space Cutoff    1.52 Angstroem

   l    n(q)    QCUT    max X(q) W(low)/X(q) W(high)/X(q)  e(spline) 
   2      9    11.346   134.116    0.47E-03    0.13E-03    0.92E-06
   2      9    11.346   130.192    0.47E-03    0.13E-03    0.92E-06
   0     10    11.346    60.310    0.74E-04    0.13E-03    0.69E-06
   0     10    11.346    39.218    0.68E-04    0.12E-03    0.65E-06
   1     10    11.346    18.439    0.15E-03    0.34E-04    0.20E-06
   1     10    11.346    12.760    0.12E-03    0.31E-04    0.16E-06
 Optimization of the real space projectors (new method)

 maximal supplied QI-value         = 24.76
 optimisation between [QCUT,QGAM] = [ 11.39, 22.77] = [ 36.31,145.25] Ry 
 Optimized for a Real-space Cutoff    1.00 Angstroem

   l    n(q)    QCUT    max X(q) W(low)/X(q) W(high)/X(q)  e(spline) 
   0      7    11.387    20.381    0.39E-03    0.13E-02    0.15E-06
   0      7    11.387    15.268    0.42E-03    0.14E-02    0.17E-06
   1      6    11.387     5.964    0.41E-03    0.11E-02    0.17E-06
   1      6    11.387     5.382    0.39E-03    0.87E-03    0.15E-06

 ----------------------------------------------------------------------------- 
|                                                                             |
|  ADVICE TO THIS USER RUNNING 'VASP/VAMP'   (HEAR YOUR MASTER'S VOICE ...):  |
|                                                                             |
|      You enforced a specific xc-type in the INCAR file,                     |
|      a different type was found on the POTCAR file                          |
|          I HOPE YOU KNOW, WHAT YOU ARE  DOING                               |
|                                                                             |
 ----------------------------------------------------------------------------- 

  PAW_PBE Ir 06Sep2000                  :
 energy of atom  1       EATOM= -560.1833
 kinetic energy error for atom=    0.0018 (will be added to EATOM!!)
  PAW_PBE O 08Apr2002                   :
 energy of atom  2       EATOM= -432.3788
 kinetic energy error for atom=    0.0224 (will be added to EATOM!!)
  PAW_PBE Ir 06Sep2000                  :
 energy of atom  3       EATOM= -560.1833
 kinetic energy error for atom=    0.0018 (will be added to EATOM!!)
  PAW_PBE O 08Apr2002                   :
 energy of atom  4       EATOM= -432.3788
 kinetic energy error for atom=    0.0224 (will be added to EATOM!!)
 
 
 POSCAR: Ir  O Ir  O                             
  positions in cartesian coordinates
  No initial velocities read in
 exchange correlation table for  LEXCH =        9
   RHO(1)=    0.500       N(1)  =     2000
   RHO(2)=  100.500       N(2)  =     4000

 VTST: version 3.2, (02/03/18)

 CHAIN: initializing optimizer
 
 OPT: Using VASP Dynamics algorithm
 CHAIN: Read ICHAIN            0
 
 POSCAR: Ir  O Ir  O                             
  positions in cartesian coordinates
  No initial velocities read in
 


--------------------------------------------------------------------------------------------------------


 ion  position               nearest neighbor table
   1  0.125  0.500  0.188-  20 2.00  28 2.00  16 2.02  24 2.02  25 2.02  17 2.02   2 3.20  49 3.20

   2  0.375  0.500  0.188-  21 2.00  29 2.00  25 2.02  17 2.02  64 2.02  72 2.02   1 3.20  48 3.20

   3  0.125  0.000  0.062-  22 2.00  30 2.00  18 2.02  26 2.02  27 2.02  19 2.02   4 3.20  51 3.20

   4  0.375  0.000  0.062-  23 2.00  31 2.00  27 2.02  19 2.02  66 2.02  74 2.02   3 3.20  50 3.20

   5  0.000  0.500  0.062-  16 2.00  22 2.02  30 2.02  71 2.02  79 2.02   6 3.20  53 3.20
   6  0.250  0.500  0.062-  17 2.00  22 2.02  23 2.02  30 2.02  31 2.02   5 3.20  52 3.20
   7  0.000  0.000  0.188-  34 1.98  26 2.00  28 2.02  20 2.02  69 2.02  77 2.02   8 3.20  55 3.20

   8  0.250  0.000  0.188-  35 1.99  27 2.00  20 2.02  28 2.02  29 2.02  21 2.02   7 3.20  54 3.20

   9  0.126  0.500  0.440-  36 1.91  44 1.91  40 2.01  41 2.03  33 2.05  32 2.06  10 3.18  57 3.24

  10  0.375  0.500  0.440-  41 1.98  88 1.99  37 2.01  45 2.01  33 2.04  80 2.04   9 3.18  56 3.19

  11  0.122  0.000  0.312-  42 1.95  38 1.99  46 1.99  34 2.00  43 2.04  35 2.06  59 3.14  12 3.24

  12  0.375  0.000  0.312-  39 2.00  47 2.00  35 2.01  90 2.02  43 2.02  82 2.03  58 3.23  11 3.24

  13  1.000  0.500  0.314-  32 2.00  38 2.02  46 2.02  24 2.02  87 2.02  95 2.02  61 3.20  14 3.20

  14  0.250  0.500  0.313-  33 2.00  25 2.01  39 2.03  47 2.03  46 2.03  38 2.03  13 3.20  60 3.21

  15  0.243  0.000  0.435-  36 1.91  44 1.91  43 1.96  45 2.08  37 2.08  62 3.29
  16  0.000  0.500  0.140-   5 2.00   1 2.02  49 2.02
  17  0.250  0.500  0.140-   6 2.00   2 2.02   1 2.02
  18  0.000  0.000  0.015-   3 2.02  51 2.02
  19  0.250  0.000  0.015-   3 2.02   4 2.02
  20  0.125  0.808  0.188-   1 2.00   7 2.02   8 2.02
  21  0.375  0.808  0.188-   2 2.00   8 2.02  54 2.02
  22  0.125  0.308  0.062-   3 2.00   5 2.02   6 2.02
  23  0.375  0.308  0.062-   4 2.00   6 2.02  52 2.02
  24  0.000  0.500  0.235-  13 2.02   1 2.02  49 2.02
  25  0.250  0.500  0.235-  14 2.01   2 2.02   1 2.02
  26  0.000  0.000  0.110-   7 2.00   3 2.02  51 2.02
  27  0.250  0.000  0.110-   8 2.00   4 2.02   3 2.02
  28  0.125  0.192  0.188-   1 2.00   7 2.02   8 2.02
  29  0.375  0.192  0.188-   2 2.00   8 2.02  54 2.02
  30  0.125  0.692  0.062-   3 2.00   5 2.02   6 2.02
  31  0.375  0.692  0.062-   4 2.00   6 2.02  52 2.02
  32  0.000  0.500  0.391-  13 2.00  57 2.06   9 2.06
  33  0.251  0.500  0.390-  14 2.00  10 2.04   9 2.05
  34  1.000  0.000  0.264-   7 1.98  11 2.00  59 2.02
  35  0.250  0.000  0.264-   8 1.99  12 2.01  11 2.06
  36  0.137  0.795  0.443-  15 1.91   9 1.91
  37  0.373  0.811  0.440-  10 2.01  62 2.03  15 2.08
  38  0.124  0.308  0.313-  11 1.99  13 2.02  14 2.03
  39  0.375  0.308  0.313-  12 2.00  60 2.03  14 2.03
  40  0.998  0.500  0.485-  57 1.99   9 2.01
  41  0.254  0.500  0.487-  10 1.98   9 2.03
  42  0.001  0.000  0.358-  11 1.95  59 1.97
  43  0.249  0.000  0.359-  15 1.96  12 2.02  11 2.04
  44  0.137  0.205  0.443-  15 1.91   9 1.91
  45  0.373  0.189  0.440-  10 2.01  62 2.03  15 2.08
  46  0.124  0.692  0.313-  11 1.99  13 2.02  14 2.03
  47  0.375  0.692  0.313-  12 2.00  60 2.03  14 2.03
  48  0.625  0.500  0.188-  68 2.00  76 2.00  64 2.02  72 2.02  73 2.02  65 2.02   2 3.20  49 3.20

  49  0.875  0.500  0.188-  69 2.00  77 2.00  65 2.02  16 2.02  73 2.02  24 2.02   1 3.20  48 3.20

  50  0.625  0.000  0.062-  70 2.00  78 2.00  66 2.02  74 2.02  75 2.02  67 2.02   4 3.20  51 3.20

  51  0.875  0.000  0.062-  71 2.00  79 2.00  67 2.02  18 2.02  75 2.02  26 2.02   3 3.20  50 3.20

  52  0.500  0.500  0.062-  64 2.00  31 2.02  23 2.02  70 2.02  78 2.02  53 3.20   6 3.20
  53  0.750  0.500  0.062-  65 2.00  70 2.02  71 2.02  78 2.02  79 2.02  52 3.20   5 3.20
  54  0.500  0.000  0.188-  82 1.99  74 2.00  68 2.02  21 2.02  76 2.02  29 2.02   8 3.20  55 3.20

  55  0.750  0.000  0.188-  75 2.00  83 2.00  68 2.02  76 2.02  77 2.02  69 2.02   7 3.20  54 3.20

  56  0.624  0.500  0.439-  88 1.99  89 1.99  84 2.00  92 2.00  81 2.03  80 2.03  10 3.19  57 3.20

  57  0.874  0.500  0.440-  85 1.92  93 1.92  40 1.99  89 2.00  32 2.06  81 2.06  56 3.20   9 3.24

  58  0.627  0.000  0.313-  86 1.99  94 1.99  83 2.00  91 2.02  90 2.03  82 2.04  59 3.20  12 3.23

  59  0.877  0.000  0.313-  42 1.97  87 1.99  95 1.99  34 2.02  91 2.04  83 2.05  11 3.14  58 3.20

  60  0.500  0.500  0.313-  80 1.99  72 2.02  39 2.03  47 2.03  86 2.03  94 2.03  61 3.20  14 3.21

  61  0.750  0.500  0.313-  81 1.99  73 2.01  86 2.02  94 2.02  87 2.03  95 2.03  13 3.20  60 3.20

  62  0.499  0.000  0.435-  90 1.94  84 2.03  92 2.03  45 2.03  37 2.03  15 3.29  63 3.29
  63  0.756  0.000  0.443-  96 1.79  93 1.94  85 1.94  84 2.09  92 2.09  91 2.13  62 3.29
  64  0.500  0.500  0.140-  52 2.00  48 2.02   2 2.02
  65  0.750  0.500  0.140-  53 2.00  49 2.02  48 2.02
  66  0.500  0.000  0.015-   4 2.02  50 2.02
  67  0.750  0.000  0.015-  50 2.02  51 2.02
  68  0.625  0.808  0.188-  48 2.00  54 2.02  55 2.02
  69  0.875  0.808  0.188-  49 2.00   7 2.02  55 2.02
  70  0.625  0.308  0.062-  50 2.00  52 2.02  53 2.02
  71  0.875  0.308  0.062-  51 2.00   5 2.02  53 2.02
  72  0.500  0.500  0.235-  60 2.02  48 2.02   2 2.02
  73  0.750  0.500  0.235-  61 2.01  49 2.02  48 2.02
  74  0.500  0.000  0.110-  54 2.00  50 2.02   4 2.02
  75  0.750  0.000  0.110-  55 2.00  51 2.02  50 2.02
  76  0.625  0.192  0.188-  48 2.00  54 2.02  55 2.02
  77  0.875  0.192  0.188-  49 2.00   7 2.02  55 2.02
  78  0.625  0.692  0.062-  50 2.00  52 2.02  53 2.02
  79  0.875  0.692  0.062-  51 2.00   5 2.02  53 2.02
  80  0.499  0.500  0.390-  60 1.99  56 2.03  10 2.04
  81  0.748  0.500  0.390-  61 1.99  56 2.03  57 2.06
  82  0.501  0.000  0.264-  54 1.99  12 2.03  58 2.04
  83  0.750  0.000  0.265-  55 2.00  58 2.00  59 2.05
  84  0.624  0.809  0.439-  56 2.00  62 2.03  63 2.09
  85  0.866  0.796  0.437-  57 1.92  63 1.94
  86  0.626  0.308  0.313-  58 1.99  61 2.02  60 2.03
  87  0.875  0.308  0.313-  59 1.99  13 2.02  61 2.03
  88  0.500  0.500  0.485-  10 1.99  56 1.99
  89  0.748  0.500  0.485-  56 1.99  57 2.00
  90  0.500  0.000  0.360-  62 1.94  12 2.02  58 2.03
  91  0.751  0.000  0.361-  58 2.02  59 2.04  63 2.13
  92  0.624  0.191  0.439-  56 2.00  62 2.03  63 2.09
  93  0.866  0.204  0.437-  57 1.92  63 1.94
  94  0.626  0.692  0.313-  58 1.99  61 2.02  60 2.03
  95  0.875  0.692  0.313-  59 1.99  13 2.02  61 2.03
  96  0.747  0.000  0.512-  63 1.79
 
  LATTYP: Found a simple orthorhombic cell.
 ALAT       =     6.4702430000
 B/A-ratio  =     1.9796060210
 C/A-ratio  =     4.0000000000
  
  Lattice vectors:
  
 A1 = (   0.0000000000,  -6.4702430000,   0.0000000000)
 A2 = ( -12.8085320000,   0.0000000000,   0.0000000000)
 A3 = (   0.0000000000,   0.0000000000, -25.8809720000)


Analysis of symmetry for initial positions (statically):
=====================================================================
 Subroutine PRICEL returns:
 Original cell was already a primitive cell.
 

 Routine SETGRP: Setting up the symmetry group for a 
 simple orthorhombic supercell.


 Subroutine GETGRP returns: Found  2 space group operations
 (whereof  2 operations were pure point group operations)
 out of a pool of  8 trial point group operations.


The static configuration has the point symmetry C_1h.


Analysis of symmetry for dynamics (positions and initial velocities):
=====================================================================
 Subroutine PRICEL returns:
 Original cell was already a primitive cell.
 

 Routine SETGRP: Setting up the symmetry group for a 
 simple orthorhombic supercell.


 Subroutine GETGRP returns: Found  2 space group operations
 (whereof  2 operations were pure point group operations)
 out of a pool of  8 trial point group operations.


The dynamic configuration has the point symmetry C_1h.


Analysis of constrained symmetry for selective dynamics:
=====================================================================
 Subroutine PRICEL returns:
 Original cell was already a primitive cell.
 

 Routine SETGRP: Setting up the symmetry group for a 
 simple orthorhombic supercell.


 Subroutine GETGRP returns: Found  2 space group operations
 (whereof  2 operations were pure point group operations)
 out of a pool of  8 trial point group operations.


The constrained configuration has the point symmetry C_1h.


Analysis of structural, dynamic, and magnetic symmetry:
=====================================================================
 Subroutine PRICEL returns:
 Original cell was already a primitive cell.
 

 Routine SETGRP: Setting up the symmetry group for a 
 simple orthorhombic supercell.


 Subroutine GETGRP returns: Found  2 space group operations
 (whereof  2 operations were pure point group operations)
 out of a pool of  8 trial point group operations.


The magnetic configuration has the point symmetry C_1h.


 Subroutine INISYM returns: Found  2 space group operations
 (whereof  2 operations are pure point group operations),
 and found     1 'primitive' translations

 
 
 KPOINTS: Automatic mesh                          

Automatic generation of k-mesh.
Space group operators:
 irot       det(A)        alpha          n_x          n_y          n_z        tau_x        tau_y        tau_z
    1     1.000000     0.000001     1.000000     0.000000     0.000000     0.000000     0.000000     0.000000
    2    -1.000000   180.000000     0.000000     1.000000     0.000000     0.000000     0.000000     0.000000
 
 Subroutine IBZKPT returns following result:
 ===========================================
 
 Found      4 irreducible k-points:
 
 Following reciprocal coordinates:
            Coordinates               Weight
  0.000000  0.000000  0.000000      1.000000
  0.333333  0.000000  0.000000      2.000000
  0.000000  0.333333  0.000000      2.000000
  0.333333  0.333333  0.000000      4.000000
 
 Following cartesian coordinates:
            Coordinates               Weight
  0.000000  0.000000  0.000000      1.000000
  0.026024  0.000000  0.000000      2.000000
  0.000000  0.051518  0.000000      2.000000
  0.026024  0.051518  0.000000      4.000000
 
 
 Subroutine IBZKPT_HF returns following result:
 ==============================================
 
 Found      9 k-points in 1st BZ
 the following      9 k-points will be used (e.g. in the exchange kernel)
 Following reciprocal coordinates:   # in IRBZ
  0.000000  0.000000  0.000000    0.11111111   1 t-inv F
  0.333333  0.000000  0.000000    0.11111111   2 t-inv F
  0.000000  0.333333  0.000000    0.11111111   3 t-inv F
  0.333333  0.333333  0.000000    0.11111111   4 t-inv F
  0.000000 -0.333333  0.000000    0.11111111   3 t-inv F
  0.333333 -0.333333  0.000000    0.11111111   4 t-inv F
 -0.333333  0.000000  0.000000    0.11111111   2 t-inv T
 -0.333333 -0.333333  0.000000    0.11111111   4 t-inv T
 -0.333333  0.333333  0.000000    0.11111111   4 t-inv T


--------------------------------------------------------------------------------------------------------




 Dimension of arrays:
   k-points           NKPTS =      4   k-points in BZ     NKDIM =      4   number of bands    NBANDS=    440
   number of dos      NEDOS =    301   number of ions     NIONS =     96
   non local maximal  LDIM  =      6   non local SUM 2l+1 LMDIM =     18
   total plane-waves  NPLWV = 362880
   max r-space proj   IRMAX =   2532   max aug-charges    IRDMAX=  12432
   dimension x,y,z NGX =    70 NGY =   36 NGZ =  144
   dimension x,y,z NGXF=   140 NGYF=   72 NGZF=  288
   support grid    NGXF=   140 NGYF=   72 NGZF=  288
   ions per type =              15  32  16  33
   NGX,Y,Z   is equivalent  to a cutoff of   9.09,  9.25,  9.25 a.u.
   NGXF,Y,Z  is equivalent  to a cutoff of  18.17, 18.50, 18.50 a.u.

 SYSTEM =  unknown system                          
 POSCAR =  Ir  O Ir  O                             

 Startparameter for this run:
   NWRITE =      2    write-flag & timer
   PREC   = normal    normal or accurate (medium, high low for compatibility)
   ISTART =      0    job   : 0-new  1-cont  2-samecut
   ICHARG =      2    charge: 1-file 2-atom 10-const
   ISPIN  =      2    spin polarized calculation?
   LNONCOLLINEAR =      F non collinear calculations
   LSORBIT =      F    spin-orbit coupling
   INIWAV =      1    electr: 0-lowe 1-rand  2-diag
   LASPH  =      F    aspherical Exc in radial PAW
   METAGGA=      F    non-selfconsistent MetaGGA calc.

 Electronic Relaxation 1
   ENCUT  =  500.0 eV  36.75 Ry    6.06 a.u.  23.35 11.80 47.19*2*pi/ulx,y,z
   ENINI  =  500.0     initial cutoff
   ENAUG  =  605.4 eV  augmentation charge cutoff
   NELM   =     60;   NELMIN=  4; NELMDL= -5     # of ELM steps 
   EDIFF  = 0.1E-05   stopping-criterion for ELM
   LREAL  =      T    real-space projection
   NLSPLINE    = F    spline interpolate recip. space projectors
   LCOMPAT=      F    compatible to vasp.4.4
   GGA_COMPAT  = T    GGA compatible to vasp.4.4-vasp.4.6
   LMAXPAW     = -100 max onsite density
   LMAXMIX     =    2 max onsite mixed and CHGCAR
   VOSKOWN=      0    Vosko Wilk Nusair interpolation
   ROPT   =   -0.00050  -0.00050  -0.00050  -0.00050
 Ionic relaxation
   EDIFFG = -.5E-01   stopping-criterion for IOM
   NSW    =   1189    number of steps for IOM
   NBLOCK =      1;   KBLOCK =   1189    inner block; outer block 
   IBRION =      5    ionic relax: 0-MD 1-quasi-New 2-CG
   NFREE  =      2    steps in history (QN), initial steepest desc. (CG)
   ISIF   =      2    stress and relaxation
   IWAVPR =     11    prediction:  0-non 1-charg 2-wave 3-comb
   ISYM   =      2    0-nonsym 1-usesym 2-fastsym
   LCORR  =      T    Harris-Foulkes like correction to forces

   POTIM  = 0.5000    time-step for ionic-motion
   TEIN   =    0.0    initial temperature
   TEBEG  =    0.0;   TEEND  =   0.0 temperature during run
   SMASS  =  -3.00    Nose mass-parameter (am)
   estimated Nose-frequenzy (Omega)   =  0.10E-29 period in steps =****** mass=  -0.375E-26a.u.
   SCALEE = 1.0000    scale energy and forces
   NPACO  =    256;   APACO  = 16.0  distance and # of slots for P.C.
   PSTRESS=    0.0 pullay stress

  Mass of Ions in am
   POMASS = 192.22 16.00192.22 16.00
  Ionic Valenz
   ZVAL   =   9.00  6.00  9.00  6.00
  Atomic Wigner-Seitz radii
   RWIGS  =  -1.00 -1.00 -1.00 -1.00
  virtual crystal weights 
   VCA    =   1.00  1.00  1.00  1.00
   NELECT =     669.0000    total number of electrons
   NUPDOWN=      -1.0000    fix difference up-down

 DOS related values:
   EMIN   =  10.00;   EMAX   =-10.00  energy-range for DOS
   EFERMI =   0.00
   ISMEAR =     0;   SIGMA  =   0.05  broadening in eV -4-tet -1-fermi 0-gaus

 Electronic relaxation 2 (details)
   IALGO  =     68    algorithm
   LDIAG  =      T    sub-space diagonalisation (order eigenvalues)
   LSUBROT=      F    optimize rotation matrix (better conditioning)
   TURBO    =      0    0=normal 1=particle mesh
   IRESTART =      0    0=no restart 2=restart with 2 vectors
   NREBOOT  =      0    no. of reboots
   NMIN     =      0    reboot dimension
   EREF     =   0.00    reference energy to select bands
   IMIX   =      4    mixing-type and parameters
     AMIX     =   0.40;   BMIX     =  1.00
     AMIX_MAG =   1.60;   BMIX_MAG =  1.00
     AMIN     =   0.10
     WC   =   100.;   INIMIX=   1;  MIXPRE=   1;  MAXMIX=  60

 Intra band minimization:
   WEIMIN = 0.0010     energy-eigenvalue tresh-hold
   EBREAK =  0.57E-09  absolut break condition
   DEPER  =   0.30     relativ break condition  

   TIME   =   0.40     timestep for ELM

  volume/ion in A,a.u.               =      22.34       150.77
  Fermi-wavevector in a.u.,A,eV,Ry     =   1.110240  2.098049 16.770974  1.232632
  Thomas-Fermi vector in A             =   2.246789
 
 Write flags
   LWAVE        =      F    write WAVECAR
   LDOWNSAMPLE  =      F    k-point downsampling of WAVECAR
   LCHARG       =      F    write CHGCAR
   LVTOT        =      F    write LOCPOT, total local potential
   LVHAR        =      T    write LOCPOT, Hartree potential only
   LELF         =      F    write electronic localiz. function (ELF)
   LORBIT       =      0    0 simple, 1 ext, 2 COOP (PROOUT), +10 PAW based schemes


 Dipole corrections
   LMONO  =      F    monopole corrections only (constant potential shift)
   LDIPOL =      F    correct potential (dipole corrections)
   IDIPOL =      0    1-x, 2-y, 3-z, 4-all directions 
   EPSILON=  1.0000000 bulk dielectric constant

 Exchange correlation treatment:
   GGA     =    RP    GGA type
   LEXCH   =     9    internal setting for exchange type
   VOSKOWN=      0    Vosko Wilk Nusair interpolation
   LHFCALC =     F    Hartree Fock is set to
   LHFONE  =     F    Hartree Fock one center treatment
   AEXX    =    0.0000 exact exchange contribution

 Linear response parameters
   LEPSILON=     F    determine dielectric tensor
   LRPA    =     F    only Hartree local field effects (RPA)
   LNABLA  =     F    use nabla operator in PAW spheres
   LVEL    =     F    velocity operator in full k-point grid
   LINTERFAST=   F  fast interpolation
   KINTER  =     0    interpolate to denser k-point grid
   CSHIFT  =0.1000    complex shift for real part using Kramers Kronig
   OMEGAMAX=  -1.0    maximum frequency
   DEG_THRESHOLD= 0.2000000E-02 threshold for treating states as degnerate
   RTIME   =   -0.100 relaxation time in fs
  (WPLASMAI=    0.000 imaginary part of plasma frequency in eV, 0.658/RTIME)
   DFIELD  = 0.0000000 0.0000000 0.0000000 field for delta impulse in time
 
 Orbital magnetization related:
   ORBITALMAG=     F  switch on orbital magnetization
   LCHIMAG   =     F  perturbation theory with respect to B field
   DQ        =  0.001000  dq finite difference perturbation B field
   LLRAUG    =     F  two centre corrections for induced B field



--------------------------------------------------------------------------------------------------------


 finite differences
   using selective dynamics as specified on POSCAR
   WARNING: If single coordinates had been selected the selection of coordinates
            is made according to the corresponding   d i r e c t   coordinates!
            Don't support selection of single cartesian coordinates -- sorry ...
  !
 charge density and potential will be updated during run
 spin polarized calculation
 RMM-DIIS sequential band-by-band and
  variant of blocked Davidson during initial phase
 perform sub-space diagonalisation
    before iterative eigenvector-optimisation
 modified Broyden-mixing scheme, WC =      100.0
 initial mixing is a Kerker type mixing with AMIX =  0.4000 and BMIX =      1.0000
 Hartree-type preconditioning will be used
 using additional bands          105
 real space projection scheme for non local part
 use partial core corrections
 calculate Harris-corrections to forces 
   (improved forces if not selfconsistent)
 use gradient corrections 
 use of overlap-Matrix (Vanderbilt PP)
 Gauss-broadening in eV      SIGMA  =   0.05


--------------------------------------------------------------------------------------------------------


  energy-cutoff  :      500.00
  volume of cell :     2144.87
      direct lattice vectors                 reciprocal lattice vectors
    12.808532000  0.000000000  0.000000000     0.078072959  0.000000000  0.000000000
     0.000000000  6.470243000  0.000000000     0.000000000  0.154553701  0.000000000
     0.000000000  0.000000000 25.880972000     0.000000000  0.000000000  0.038638425

  length of vectors
    12.808532000  6.470243000 25.880972000     0.078072959  0.154553701  0.038638425


 
 k-points in units of 2pi/SCALE and weight: Automatic mesh                          
   0.00000000  0.00000000  0.00000000       0.111
   0.02602432  0.00000000  0.00000000       0.222
   0.00000000  0.05151790  0.00000000       0.222
   0.02602432  0.05151790  0.00000000       0.444
 
 k-points in reciprocal lattice and weights: Automatic mesh                          
   0.00000000  0.00000000  0.00000000       0.111
   0.33333333  0.00000000  0.00000000       0.222
   0.00000000  0.33333333  0.00000000       0.222
   0.33333333  0.33333333  0.00000000       0.444
 
 position of ions in fractional coordinates (direct lattice) 
   0.12500000  0.50000000  0.18750000
   0.37500000  0.50000000  0.18750000
   0.12500000  0.00000000  0.06250000
   0.37500000  0.00000000  0.06250000
   0.00000000  0.50000000  0.06250000
   0.25000000  0.50000000  0.06250000
   0.00000000  0.00000000  0.18750000
   0.25000000  0.00000000  0.18750000
   0.12638170  0.50000000  0.44035641
   0.37496857  0.50000000  0.43955022
   0.12175502  0.00000000  0.31218238
   0.37508854  0.00000000  0.31185647
   0.99990623  0.50000000  0.31352710
   0.24980514  0.50000000  0.31322657
   0.24258591  0.00000000  0.43505255
   0.00000000  0.50000000  0.13961000
   0.25000000  0.50000000  0.13961000
   0.00000000  0.00000000  0.01461000
   0.25000000  0.00000000  0.01461000
   0.12500000  0.80844000  0.18750000
   0.37500000  0.80844000  0.18750000
   0.12500000  0.30844000  0.06250000
   0.37500000  0.30844000  0.06250000
   0.00000000  0.50000000  0.23539000
   0.25000000  0.50000000  0.23539000
   0.00000000  0.00000000  0.11039000
   0.25000000  0.00000000  0.11039000
   0.12500000  0.19156000  0.18750000
   0.37500000  0.19156000  0.18750000
   0.12500000  0.69156000  0.06250000
   0.37500000  0.69156000  0.06250000
   0.00018575  0.50000000  0.39075692
   0.25090947  0.50000000  0.39041236
   0.99968536  0.00000000  0.26392346
   0.25045100  0.00000000  0.26435841
   0.13697363  0.79450197  0.44300843
   0.37305490  0.81053793  0.44016835
   0.12437619  0.30810924  0.31268455
   0.37512174  0.30834029  0.31291558
   0.99808276  0.50000000  0.48533035
   0.25385332  0.50000000  0.48680638
   0.00052771  0.00000000  0.35801299
   0.24936541  0.00000000  0.35922383
   0.13697363  0.20549803  0.44300843
   0.37305490  0.18946207  0.44016835
   0.12437619  0.69189076  0.31268455
   0.37512174  0.69165971  0.31291558
   0.62500000  0.50000000  0.18750000
   0.87500000  0.50000000  0.18750000
   0.62500000  0.00000000  0.06250000
   0.87500000  0.00000000  0.06250000
   0.50000000  0.50000000  0.06250000
   0.75000000  0.50000000  0.06250000
   0.50000000  0.00000000  0.18750000
   0.75000000  0.00000000  0.18750000
   0.62416183  0.50000000  0.43879409
   0.87362701  0.50000000  0.43962354
   0.62726408  0.00000000  0.31274605
   0.87697793  0.00000000  0.31275281
   0.50021987  0.50000000  0.31328542
   0.75015033  0.50000000  0.31307201
   0.49925578  0.00000000  0.43467650
   0.75569058  0.00000000  0.44321988
   0.50000000  0.50000000  0.13961000
   0.75000000  0.50000000  0.13961000
   0.50000000  0.00000000  0.01461000
   0.75000000  0.00000000  0.01461000
   0.62500000  0.80844000  0.18750000
   0.87500000  0.80844000  0.18750000
   0.62500000  0.30844000  0.06250000
   0.87500000  0.30844000  0.06250000
   0.50000000  0.50000000  0.23539000
   0.75000000  0.50000000  0.23539000
   0.50000000  0.00000000  0.11039000
   0.75000000  0.00000000  0.11039000
   0.62500000  0.19156000  0.18750000
   0.87500000  0.19156000  0.18750000
   0.62500000  0.69156000  0.06250000
   0.87500000  0.69156000  0.06250000
   0.49949659  0.50000000  0.39010986
   0.74779528  0.50000000  0.38978207
   0.50095950  0.00000000  0.26447108
   0.74992553  0.00000000  0.26463927
   0.62441092  0.80878396  0.43908167
   0.86593596  0.79587863  0.43674539
   0.62556951  0.30812128  0.31285925
   0.87532810  0.30757222  0.31263817
   0.50008672  0.50000000  0.48481358
   0.74784398  0.50000000  0.48521151
   0.50012439  0.00000000  0.35955093
   0.75093388  0.00000000  0.36104768
   0.62441092  0.19121604  0.43908167
   0.86593596  0.20412137  0.43674539
   0.62556951  0.69187872  0.31285925
   0.87532810  0.69242778  0.31263817
   0.74746919  0.00000000  0.51234408
 
 position of ions in cartesian coordinates  (Angst):
   1.60106650  3.23512150  4.85268225
   4.80319950  3.23512150  4.85268225
   1.60106650  0.00000000  1.61756075
   4.80319950  0.00000000  1.61756075
   0.00000000  3.23512150  1.61756075
   3.20213300  3.23512150  1.61756075
   0.00000000  0.00000000  4.85268225
   3.20213300  0.00000000  4.85268225
   1.61876410  3.23512150 11.39685187
   4.80279695  3.23512150 11.37598704
   1.55950309  0.00000000  8.07958342
   4.80433356  0.00000000  8.07114866
  12.80733094  3.23512150  8.11438612
   3.19963716  3.23512150  8.10660804
   3.10716934  0.00000000 11.25958277
   0.00000000  3.23512150  3.61324250
   3.20213300  3.23512150  3.61324250
   0.00000000  0.00000000  0.37812100
   3.20213300  0.00000000  0.37812100
   1.60106650  5.23080325  4.85268225
   4.80319950  5.23080325  4.85268225
   1.60106650  1.99568175  1.61756075
   4.80319950  1.99568175  1.61756075
   0.00000000  3.23512150  6.09212200
   3.20213300  3.23512150  6.09212200
   0.00000000  0.00000000  2.85700050
   3.20213300  0.00000000  2.85700050
   1.60106650  1.23943975  4.85268225
   4.80319950  1.23943975  4.85268225
   1.60106650  4.47456125  1.61756075
   4.80319950  4.47456125  1.61756075
   0.00237912  3.23512150 10.11316897
   3.21378192  3.23512150 10.10425124
  12.80450198  0.00000000  6.83059561
   3.20790969  0.00000000  6.84185256
   1.75443111  5.14062081 11.46548871
   4.77828560  5.24437734 11.39198464
   1.59307637  1.99354165  8.09257999
   4.80475881  1.99503660  8.09855947
  12.78397498  3.23512150 12.56082122
   3.25148836  3.23512150 12.59902235
   0.00675917  0.00000000  9.26572410
   3.19400479  0.00000000  9.29706189
   1.75443111  1.32962219 11.46548871
   4.77828560  1.22586566 11.39198464
   1.59307637  4.47670135  8.09257999
   4.80475881  4.47520640  8.09855947
   8.00533250  3.23512150  4.85268225
  11.20746550  3.23512150  4.85268225
   8.00533250  0.00000000  1.61756075
  11.20746550  0.00000000  1.61756075
   6.40426600  3.23512150  1.61756075
   9.60639900  3.23512150  1.61756075
   6.40426600  0.00000000  4.85268225
   9.60639900  0.00000000  4.85268225
   7.99459674  3.23512150 11.35641743
  11.18987952  3.23512150 11.37788445
   8.03433203  0.00000000  8.09417173
  11.23279984  0.00000000  8.09434678
   6.40708222  3.23512150  8.10813130
   9.60832446  3.23512150  8.10260782
   6.39473359  0.00000000 11.24985028
   9.67928703  0.00000000 11.47096121
   6.40426600  3.23512150  3.61324250
   9.60639900  3.23512150  3.61324250
   6.40426600  0.00000000  0.37812100
   9.60639900  0.00000000  0.37812100
   8.00533250  5.23080325  4.85268225
  11.20746550  5.23080325  4.85268225
   8.00533250  1.99568175  1.61756075
  11.20746550  1.99568175  1.61756075
   6.40426600  3.23512150  6.09212200
   9.60639900  3.23512150  6.09212200
   6.40426600  0.00000000  2.85700050
   9.60639900  0.00000000  2.85700050
   8.00533250  1.23943975  4.85268225
  11.20746550  1.23943975  4.85268225
   8.00533250  4.47456125  1.61756075
  11.20746550  4.47456125  1.61756075
   6.39781801  3.23512150 10.09642241
   9.57815971  3.23512150 10.08793885
   6.41655573  0.00000000  6.84476858
   9.60544511  0.00000000  6.84912166
   7.99778720  5.23302879 11.36386042
  11.09136840  5.14952814 11.30339514
   8.01262705  1.99361956  8.09710139
  11.21166800  1.99006701  8.09137963
   6.40537669  3.23512150 12.54744661
   9.57878359  3.23512150 12.55774558
   6.40585923  0.00000000  9.30552760
   9.61836067  0.00000000  9.34426496
   7.99778720  1.23721421 11.36386042
  11.09136840  1.32071486 11.30339514
   8.01262705  4.47662344  8.09710139
  11.21166800  4.48017599  8.09137963
   9.57398304  0.00000000 13.25996284
 


--------------------------------------------------------------------------------------------------------


 k-point  1 :   0.0000 0.0000 0.0000  plane waves:   54455
 k-point  2 :   0.3333 0.0000 0.0000  plane waves:   54459
 k-point  3 :   0.0000 0.3333 0.0000  plane waves:   54468
 k-point  4 :   0.3333 0.3333 0.0000  plane waves:   54434

 maximum and minimum number of plane-waves per node :     54468    54434

 maximum number of plane-waves:     54468
 maximum index in each direction: 
   IXMAX=   23   IYMAX=   11   IZMAX=   47
   IXMIN=  -23   IYMIN=  -12   IZMIN=  -47


 serial   3D FFT for wavefunctions
 parallel 3D FFT for charge:
    minimum data exchange during FFTs selected (reduces bandwidth)


 total amount of memory used by VASP MPI-rank0   171701. kBytes
=======================================================================

   base      :      30000. kBytes
   nonlr-proj:      19173. kBytes
   fftplans  :       4196. kBytes
   grid      :      37119. kBytes
   one-center:       2985. kBytes
   wavefun   :      78228. kBytes
 
     INWAV:  cpu time    0.0000: real time    0.0003
 Broyden mixing: mesh for mixing (old mesh)
   NGX = 47   NGY = 23   NGZ = 95
  (NGX  =140   NGY  = 72   NGZ  =288)
  gives a total of 102695 points

 initial charge density was supplied:
 charge density of overlapping atoms calculated
 number of electron     669.0000000 magnetization      57.6000000
 keeping initial charge density in first step


--------------------------------------------------------------------------------------------------------


 Maximum index for non-local projection operator         2445
 Maximum index for augmentation-charges          641 (set IRDMAX)


--------------------------------------------------------------------------------------------------------


 First call to EWALD:  gamma=   0.137
 Maximum number of real-space cells 3x 5x 2
 Maximum number of reciprocal cells 3x 2x 5

    FEWALD:  cpu time    0.0049: real time    0.0049


--------------------------------------- Iteration      1(   1)  ---------------------------------------


    POTLOK:  cpu time    0.1460: real time    0.1501
    SETDIJ:  cpu time    0.0203: real time    0.0203
     EDDAV:  cpu time   15.5083: real time   15.5526
       DOS:  cpu time    0.0010: real time    0.0011
    --------------------------------------------
      LOOP:  cpu time   15.6757: real time   15.7242

 eigenvalue-minimisations  :  7040
 total energy-change (2. order) : 0.7241387E+04  (-0.3003500E+05)
 number of electron     669.0000000 magnetization      57.6000000
 augmentation part      669.0000000 magnetization      57.6000000

 Free energy of the ion-electron system (eV)
  ---------------------------------------------------
  alpha Z        PSCENC =      1694.52919351
  Ewald energy   TEWEN  =    226960.68951433
  -Hartree energ DENC   =   -271845.30496947
  -exchange      EXHF   =         0.00000000
  -V(xc)+E(xc)   XCENC  =      1245.43565654
  PAW double counting   =     39656.53614886   -38476.97807352
  entropy T*S    EENTRO =        -0.05685225
  eigenvalues    EBANDS =      2564.80232206
  atomic energy  EATOM  =     45441.73369906
  Solvation  Ediel_sol  =         0.00000000
  ---------------------------------------------------
  free energy    TOTEN  =      7241.38663912 eV

  energy without entropy =     7241.44349137  energy(sigma->0) =     7241.41506525


--------------------------------------------------------------------------------------------------------




--------------------------------------- Iteration      1(   2)  ---------------------------------------


     EDDAV:  cpu time   16.0038: real time   16.0499
       DOS:  cpu time    0.0009: real time    0.0009
    --------------------------------------------
      LOOP:  cpu time   16.0047: real time   16.0508

 eigenvalue-minimisations  :  7360
 total energy-change (2. order) :-0.6810043E+04  (-0.6256646E+04)
 number of electron     669.0000000 magnetization      57.6000000
 augmentation part      669.0000000 magnetization      57.6000000

 Free energy of the ion-electron system (eV)
  ---------------------------------------------------
  alpha Z        PSCENC =      1694.52919351
  Ewald energy   TEWEN  =    226960.68951433
  -Hartree energ DENC   =   -271845.30496947
  -exchange      EXHF   =         0.00000000
  -V(xc)+E(xc)   XCENC  =      1245.43565654
  PAW double counting   =     39656.53614886   -38476.97807352
  entropy T*S    EENTRO =        -0.04576553
  eigenvalues    EBANDS =     -4245.25196806
  atomic energy  EATOM  =     45441.73369906
  Solvation  Ediel_sol  =         0.00000000
  ---------------------------------------------------
  free energy    TOTEN  =       431.34343573 eV

  energy without entropy =      431.38920126  energy(sigma->0) =      431.36631849


--------------------------------------------------------------------------------------------------------




--------------------------------------- Iteration      1(   3)  ---------------------------------------


     EDDAV:  cpu time   19.9421: real time   20.0096
       DOS:  cpu time    0.0010: real time    0.0010
    --------------------------------------------
      LOOP:  cpu time   19.9431: real time   20.0106

 eigenvalue-minimisations  :  9560
 total energy-change (2. order) :-0.1129611E+04  (-0.1088026E+04)
 number of electron     669.0000000 magnetization      57.6000000
 augmentation part      669.0000000 magnetization      57.6000000

 Free energy of the ion-electron system (eV)
  ---------------------------------------------------
  alpha Z        PSCENC =      1694.52919351
  Ewald energy   TEWEN  =    226960.68951433
  -Hartree energ DENC   =   -271845.30496947
  -exchange      EXHF   =         0.00000000
  -V(xc)+E(xc)   XCENC  =      1245.43565654
  PAW double counting   =     39656.53614886   -38476.97807352
  entropy T*S    EENTRO =        -0.07137552
  eigenvalues    EBANDS =     -5374.83718872
  atomic energy  EATOM  =     45441.73369906
  Solvation  Ediel_sol  =         0.00000000
  ---------------------------------------------------
  free energy    TOTEN  =      -698.26739492 eV

  energy without entropy =     -698.19601940  energy(sigma->0) =     -698.23170716


--------------------------------------------------------------------------------------------------------




--------------------------------------- Iteration      1(   4)  ---------------------------------------


     EDDAV:  cpu time   18.1128: real time   18.1635
       DOS:  cpu time    0.0009: real time    0.0009
    --------------------------------------------
      LOOP:  cpu time   18.1137: real time   18.1644

 eigenvalue-minimisations  :  8560
 total energy-change (2. order) :-0.4711069E+02  (-0.4622999E+02)
 number of electron     669.0000000 magnetization      57.6000000
 augmentation part      669.0000000 magnetization      57.6000000

 Free energy of the ion-electron system (eV)
  ---------------------------------------------------
  alpha Z        PSCENC =      1694.52919351
  Ewald energy   TEWEN  =    226960.68951433
  -Hartree energ DENC   =   -271845.30496947
  -exchange      EXHF   =         0.00000000
  -V(xc)+E(xc)   XCENC  =      1245.43565654
  PAW double counting   =     39656.53614886   -38476.97807352
  entropy T*S    EENTRO =        -0.07731356
  eigenvalues    EBANDS =     -5421.94194328
  atomic energy  EATOM  =     45441.73369906
  Solvation  Ediel_sol  =         0.00000000
  ---------------------------------------------------
  free energy    TOTEN  =      -745.37808752 eV

  energy without entropy =     -745.30077396  energy(sigma->0) =     -745.33943074


--------------------------------------------------------------------------------------------------------




--------------------------------------- Iteration      1(   5)  ---------------------------------------


     EDDAV:  cpu time   18.3231: real time   18.3742
       DOS:  cpu time    0.0009: real time    0.0009
    CHARGE:  cpu time    0.7502: real time    0.7524
    MIXING:  cpu time    0.0034: real time    0.0035
    --------------------------------------------
      LOOP:  cpu time   19.0776: real time   19.1310

 eigenvalue-minimisations  :  8640
 total energy-change (2. order) :-0.1278586E+01  (-0.1274647E+01)
 number of electron     669.0000396 magnetization      53.8010159
 augmentation part      115.3988129 magnetization      45.2128236

 Broyden mixing:
  rms(total) = 0.17316E+02    rms(broyden)= 0.17315E+02
  rms(prec ) = 0.17544E+02
  weight for this iteration     100.00

 Free energy of the ion-electron system (eV)
  ---------------------------------------------------
  alpha Z        PSCENC =      1694.52919351
  Ewald energy   TEWEN  =    226960.68951433
  -Hartree energ DENC   =   -271845.30496947
  -exchange      EXHF   =         0.00000000
  -V(xc)+E(xc)   XCENC  =      1245.43565654
  PAW double counting   =     39656.53614886   -38476.97807352
  entropy T*S    EENTRO =        -0.07751939
  eigenvalues    EBANDS =     -5423.22032340
  atomic energy  EATOM  =     45441.73369906
  Solvation  Ediel_sol  =         0.00000000
  ---------------------------------------------------
  free energy    TOTEN  =      -746.65667348 eV

  energy without entropy =     -746.57915408  energy(sigma->0) =     -746.61791378


--------------------------------------------------------------------------------------------------------




--------------------------------------- Iteration      1(   6)  ---------------------------------------


    POTLOK:  cpu time    0.1209: real time    0.1248
    SETDIJ:  cpu time    0.0208: real time    0.0208
    EDDIAG:  cpu time    3.0419: real time    3.0499
  RMM-DIIS:  cpu time    8.2824: real time    8.3071
    ORTHCH:  cpu time    0.7432: real time    0.7451
       DOS:  cpu time    0.0009: real time    0.0009
    CHARGE:  cpu time    0.7444: real time    0.7463
    MIXING:  cpu time    0.0029: real time    0.0030
    --------------------------------------------
      LOOP:  cpu time   12.9573: real time   12.9980

 eigenvalue-minimisations  :  7059
 total energy-change (2. order) : 0.1282809E+03  (-0.6910478E+02)
 number of electron     669.0000396 magnetization      50.6048614
 augmentation part      125.6779700 magnetization      40.3324452

 Broyden mixing:
  rms(total) = 0.11011E+02    rms(broyden)= 0.11008E+02
  rms(prec ) = 0.11588E+02
  weight for this iteration     100.00

 eigenvalues of (default mixing * dielectric matrix)
  average eigenvalue GAMMA=   0.9390
  0.9390

 Free energy of the ion-electron system (eV)
  ---------------------------------------------------
  alpha Z        PSCENC =      1694.52919351
  Ewald energy   TEWEN  =    226960.68951433
  -Hartree energ DENC   =   -272135.31999562
  -exchange      EXHF   =         0.00000000
  -V(xc)+E(xc)   XCENC  =      1326.25252737
  PAW double counting   =     47397.87878448   -46281.97248945
  entropy T*S    EENTRO =        -0.07096910
  eigenvalues    EBANDS =     -5022.09601104
  atomic energy  EATOM  =     45441.73369906
  Solvation  Ediel_sol  =         0.00000000
  ---------------------------------------------------
  free energy    TOTEN  =      -618.37574646 eV

  energy without entropy =     -618.30477736  energy(sigma->0) =     -618.34026191


--------------------------------------------------------------------------------------------------------




--------------------------------------- Iteration      1(   7)  ---------------------------------------


    POTLOK:  cpu time    0.1192: real time    0.1265
    SETDIJ:  cpu time    0.0207: real time    0.0208
    EDDIAG:  cpu time    3.0708: real time    3.0807
  RMM-DIIS:  cpu time    8.3836: real time    8.4223
    ORTHCH:  cpu time    0.7332: real time    0.7352
       DOS:  cpu time    0.0009: real time    0.0009
    CHARGE:  cpu time    0.7405: real time    0.7428
    MIXING:  cpu time    0.0029: real time    0.0029
    --------------------------------------------
      LOOP:  cpu time   13.0718: real time   13.1320

 eigenvalue-minimisations  :  7172
 total energy-change (2. order) :-0.3049285E+03  (-0.2729214E+02)
 number of electron     669.0000323 magnetization      49.8979804
 augmentation part      119.1999510 magnetization      39.7774752

 Broyden mixing:
  rms(total) = 0.28539E+02    rms(broyden)= 0.28538E+02
  rms(prec ) = 0.31398E+02
  weight for this iteration     100.00

 eigenvalues of (default mixing * dielectric matrix)
  average eigenvalue GAMMA=   0.5329
  1.0084  0.0575

 Free energy of the ion-electron system (eV)
  ---------------------------------------------------
  alpha Z        PSCENC =      1694.52919351
  Ewald energy   TEWEN  =    226960.68951433
  -Hartree energ DENC   =   -272879.89852981
  -exchange      EXHF   =         0.00000000
  -V(xc)+E(xc)   XCENC  =      1298.38033419
  PAW double counting   =     52353.32918162   -51242.99757506
  entropy T*S    EENTRO =        -0.06670736
  eigenvalues    EBANDS =     -4549.00337586
  atomic energy  EATOM  =     45441.73369906
  Solvation  Ediel_sol  =         0.00000000
  ---------------------------------------------------
  free energy    TOTEN  =      -923.30426537 eV

  energy without entropy =     -923.23755802  energy(sigma->0) =     -923.27091169


--------------------------------------------------------------------------------------------------------




--------------------------------------- Iteration      1(   8)  ---------------------------------------


    POTLOK:  cpu time    0.1177: real time    0.1195
    SETDIJ:  cpu time    0.0207: real time    0.0207
    EDDIAG:  cpu time    3.0352: real time    3.0439
  RMM-DIIS:  cpu time    8.2518: real time    8.2872
    ORTHCH:  cpu time    0.7332: real time    0.7360
       DOS:  cpu time    0.0010: real time    0.0010
    CHARGE:  cpu time    0.7459: real time    0.7479
    MIXING:  cpu time    0.0036: real time    0.0036
    --------------------------------------------
      LOOP:  cpu time   12.9090: real time   12.9598

 eigenvalue-minimisations  :  7045
 total energy-change (2. order) : 0.1865270E+03  (-0.2355098E+01)
 number of electron     669.0000355 magnetization      48.1043449
 augmentation part      119.6379720 magnetization      37.8955285

 Broyden mixing:
  rms(total) = 0.18093E+02    rms(broyden)= 0.18093E+02
  rms(prec ) = 0.19934E+02
  weight for this iteration     100.00

 eigenvalues of (default mixing * dielectric matrix)
  average eigenvalue GAMMA=   0.5472
  1.1071  0.2673  0.2673

 Free energy of the ion-electron system (eV)
  ---------------------------------------------------
  alpha Z        PSCENC =      1694.52919351
  Ewald energy   TEWEN  =    226960.68951433
  -Hartree energ DENC   =   -272800.90013635
  -exchange      EXHF   =         0.00000000
  -V(xc)+E(xc)   XCENC  =      1298.13090941
  PAW double counting   =     53605.69173774   -52498.06366502
  entropy T*S    EENTRO =        -0.08842751
  eigenvalues    EBANDS =     -4438.50006060
  atomic energy  EATOM  =     45441.73369906
  Solvation  Ediel_sol  =         0.00000000
  ---------------------------------------------------
  free energy    TOTEN  =      -736.77723542 eV

  energy without entropy =     -736.68880791  energy(sigma->0) =     -736.73302167


--------------------------------------------------------------------------------------------------------




--------------------------------------- Iteration      1(   9)  ---------------------------------------


    POTLOK:  cpu time    0.1184: real time    0.1215
    SETDIJ:  cpu time    0.0208: real time    0.0208
    EDDIAG:  cpu time    3.0438: real time    3.0521
  RMM-DIIS:  cpu time    8.2781: real time    8.3020
    ORTHCH:  cpu time    0.7339: real time    0.7358
       DOS:  cpu time    0.0009: real time    0.0009
    CHARGE:  cpu time    0.7399: real time    0.7422
    MIXING:  cpu time    0.0035: real time    0.0035
    --------------------------------------------
      LOOP:  cpu time   12.9394: real time   12.9788

 eigenvalue-minimisations  :  7042
 total energy-change (2. order) : 0.1585956E+02  (-0.9408556E+01)
 number of electron     669.0000373 magnetization      46.5775093
 augmentation part      119.2781337 magnetization      41.4670070

 Broyden mixing:
  rms(total) = 0.18696E+02    rms(broyden)= 0.18695E+02
  rms(prec ) = 0.21184E+02
  weight for this iteration     100.00

 eigenvalues of (default mixing * dielectric matrix)
  average eigenvalue GAMMA=   0.5282
  1.3585  0.2977  0.2977  0.1588

 Free energy of the ion-electron system (eV)
  ---------------------------------------------------
  alpha Z        PSCENC =      1694.52919351
  Ewald energy   TEWEN  =    226960.68951433
  -Hartree energ DENC   =   -272151.73863490
  -exchange      EXHF   =         0.00000000
  -V(xc)+E(xc)   XCENC  =      1298.23634978
  PAW double counting   =     54916.64425096   -53816.34674296
  entropy T*S    EENTRO =        -0.04161967
  eigenvalues    EBANDS =     -5064.62368758
  atomic energy  EATOM  =     45441.73369906
  Solvation  Ediel_sol  =         0.00000000
  ---------------------------------------------------
  free energy    TOTEN  =      -720.91767748 eV

  energy without entropy =     -720.87605781  energy(sigma->0) =     -720.89686764


--------------------------------------------------------------------------------------------------------




--------------------------------------- Iteration      1(  10)  ---------------------------------------


    POTLOK:  cpu time    0.1205: real time    0.1219
    SETDIJ:  cpu time    0.0205: real time    0.0206
    EDDIAG:  cpu time    3.0351: real time    3.0440
  RMM-DIIS:  cpu time    8.3417: real time    8.3655
    ORTHCH:  cpu time    0.7345: real time    0.7369
       DOS:  cpu time    0.0010: real time    0.0010
    CHARGE:  cpu time    0.7398: real time    0.7420
    MIXING:  cpu time    0.0034: real time    0.0034
    --------------------------------------------
      LOOP:  cpu time   12.9966: real time   13.0353

 eigenvalue-minimisations  :  7092
 total energy-change (2. order) : 0.6413831E+02  (-0.3244899E+01)
 number of electron     669.0000461 magnetization      43.7682135
 augmentation part      119.1082348 magnetization      37.4329913

 Broyden mixing:
  rms(total) = 0.85256E+01    rms(broyden)= 0.85241E+01
  rms(prec ) = 0.10166E+02
  weight for this iteration     100.00

 eigenvalues of (default mixing * dielectric matrix)
  average eigenvalue GAMMA=   0.5951
  1.8469  0.4425  0.2709  0.2709  0.1445

 Free energy of the ion-electron system (eV)
  ---------------------------------------------------
  alpha Z        PSCENC =      1694.52919351
  Ewald energy   TEWEN  =    226960.68951433
  -Hartree energ DENC   =   -272341.41363919
  -exchange      EXHF   =         0.00000000
  -V(xc)+E(xc)   XCENC  =      1301.54626496
  PAW double counting   =     56434.88237939   -55341.43600506
  entropy T*S    EENTRO =        -0.05273055
  eigenvalues    EBANDS =     -4807.25804799
  atomic energy  EATOM  =     45441.73369906
  Solvation  Ediel_sol  =         0.00000000
  ---------------------------------------------------
  free energy    TOTEN  =      -656.77937154 eV

  energy without entropy =     -656.72664099  energy(sigma->0) =     -656.75300627


--------------------------------------------------------------------------------------------------------




--------------------------------------- Iteration      1(  11)  ---------------------------------------


    POTLOK:  cpu time    0.1189: real time    0.1215
    SETDIJ:  cpu time    0.0207: real time    0.0207
    EDDIAG:  cpu time    3.0313: real time    3.0407
  RMM-DIIS:  cpu time    8.2852: real time    8.3087
    ORTHCH:  cpu time    0.7335: real time    0.7354
       DOS:  cpu time    0.0010: real time    0.0010
    CHARGE:  cpu time    0.7392: real time    0.7412
    MIXING:  cpu time    0.0038: real time    0.0038
    --------------------------------------------
      LOOP:  cpu time   12.9336: real time   12.9730

 eigenvalue-minimisations  :  7042
 total energy-change (2. order) : 0.3454173E+02  (-0.4732550E+01)
 number of electron     669.0000377 magnetization      41.8698584
 augmentation part      119.9607423 magnetization      34.2688954

 Broyden mixing:
  rms(total) = 0.67889E+01    rms(broyden)= 0.67874E+01
  rms(prec ) = 0.91142E+01
  weight for this iteration     100.00

 eigenvalues of (default mixing * dielectric matrix)
  average eigenvalue GAMMA=   0.5904
  1.8536  0.5388  0.5388  0.2419  0.2419  0.1272

 Free energy of the ion-electron system (eV)
  ---------------------------------------------------
  alpha Z        PSCENC =      1694.52919351
  Ewald energy   TEWEN  =    226960.68951433
  -Hartree energ DENC   =   -272347.08706648
  -exchange      EXHF   =         0.00000000
  -V(xc)+E(xc)   XCENC  =      1306.42254579
  PAW double counting   =     59312.31069398   -58231.82110210
  entropy T*S    EENTRO =        -0.06871291
  eigenvalues    EBANDS =     -4758.94640393
  atomic energy  EATOM  =     45441.73369906
  Solvation  Ediel_sol  =         0.00000000
  ---------------------------------------------------
  free energy    TOTEN  =      -622.23763875 eV

  energy without entropy =     -622.16892584  energy(sigma->0) =     -622.20328229


--------------------------------------------------------------------------------------------------------




--------------------------------------- Iteration      1(  12)  ---------------------------------------


    POTLOK:  cpu time    0.1195: real time    0.1265
    SETDIJ:  cpu time    0.0205: real time    0.0207
    EDDIAG:  cpu time    3.0292: real time    3.0384
  RMM-DIIS:  cpu time    8.2445: real time    8.2723
    ORTHCH:  cpu time    0.7347: real time    0.7365
       DOS:  cpu time    0.0010: real time    0.0010
    CHARGE:  cpu time    0.7429: real time    0.7451
    MIXING:  cpu time    0.0039: real time    0.0040
    --------------------------------------------
      LOOP:  cpu time   12.8963: real time   12.9444

 eigenvalue-minimisations  :  7056
 total energy-change (2. order) : 0.1814869E+02  (-0.1805380E+01)
 number of electron     669.0000414 magnetization      40.8159963
 augmentation part      120.5144435 magnetization      32.8349044

 Broyden mixing:
  rms(total) = 0.45712E+01    rms(broyden)= 0.45681E+01
  rms(prec ) = 0.55811E+01
  weight for this iteration     100.00

 eigenvalues of (default mixing * dielectric matrix)
  average eigenvalue GAMMA=   0.5596
  1.9620  0.5903  0.3729  0.3729  0.2483  0.2483  0.1227

 Free energy of the ion-electron system (eV)
  ---------------------------------------------------
  alpha Z        PSCENC =      1694.52919351
  Ewald energy   TEWEN  =    226960.68951433
  -Hartree energ DENC   =   -272430.29285307
  -exchange      EXHF   =         0.00000000
  -V(xc)+E(xc)   XCENC  =      1307.55716373
  PAW double counting   =     59511.93004753   -58434.75306461
  entropy T*S    EENTRO =        -0.05451896
  eigenvalues    EBANDS =     -4655.42812783
  atomic energy  EATOM  =     45441.73369906
  Solvation  Ediel_sol  =         0.00000000
  ---------------------------------------------------
  free energy    TOTEN  =      -604.08894631 eV

  energy without entropy =     -604.03442734  energy(sigma->0) =     -604.06168683


--------------------------------------------------------------------------------------------------------




--------------------------------------- Iteration      1(  13)  ---------------------------------------


    POTLOK:  cpu time    0.1188: real time    0.1193
    SETDIJ:  cpu time    0.0207: real time    0.0207
    EDDIAG:  cpu time    3.0336: real time    3.0426
  RMM-DIIS:  cpu time    8.2710: real time    8.2956
    ORTHCH:  cpu time    0.7320: real time    0.7340
       DOS:  cpu time    0.0009: real time    0.0009
    CHARGE:  cpu time    0.7402: real time    0.7422
    MIXING:  cpu time    0.0046: real time    0.0046
    --------------------------------------------
      LOOP:  cpu time   12.9218: real time   12.9601

 eigenvalue-minimisations  :  7041
 total energy-change (2. order) : 0.6286490E+01  (-0.3918454E+00)
 number of electron     669.0000428 magnetization      39.9073312
 augmentation part      120.6818600 magnetization      31.2137589

 Broyden mixing:
  rms(total) = 0.44190E+01    rms(broyden)= 0.44185E+01
  rms(prec ) = 0.56847E+01
  weight for this iteration     100.00

 eigenvalues of (default mixing * dielectric matrix)
  average eigenvalue GAMMA=   0.5520
  2.0494  0.6278  0.4306  0.4306  0.3042  0.2241  0.2241  0.1250

 Free energy of the ion-electron system (eV)
  ---------------------------------------------------
  alpha Z        PSCENC =      1694.52919351
  Ewald energy   TEWEN  =    226960.68951433
  -Hartree energ DENC   =   -272287.72510273
  -exchange      EXHF   =         0.00000000
  -V(xc)+E(xc)   XCENC  =      1306.53312815
  PAW double counting   =     59947.24697438   -58871.95975349
  entropy T*S    EENTRO =        -0.06941863
  eigenvalues    EBANDS =     -4788.78069057
  atomic energy  EATOM  =     45441.73369906
  Solvation  Ediel_sol  =         0.00000000
  ---------------------------------------------------
  free energy    TOTEN  =      -597.80245599 eV

  energy without entropy =     -597.73303736  energy(sigma->0) =     -597.76774667


--------------------------------------------------------------------------------------------------------




--------------------------------------- Iteration      1(  14)  ---------------------------------------


    POTLOK:  cpu time    0.1185: real time    0.1199
    SETDIJ:  cpu time    0.0206: real time    0.0207
    EDDIAG:  cpu time    3.0654: real time    3.0742
  RMM-DIIS:  cpu time    8.2640: real time    8.2890
    ORTHCH:  cpu time    0.7327: real time    0.7347
       DOS:  cpu time    0.0009: real time    0.0009
    CHARGE:  cpu time    0.7439: real time    0.7461
    MIXING:  cpu time    0.0052: real time    0.0052
    --------------------------------------------
      LOOP:  cpu time   12.9512: real time   12.9908

 eigenvalue-minimisations  :  7059
 total energy-change (2. order) : 0.3814226E+01  (-0.2893496E+00)
 number of electron     669.0000407 magnetization      38.8197804
 augmentation part      120.2512293 magnetization      30.3255878

 Broyden mixing:
  rms(total) = 0.28437E+01    rms(broyden)= 0.28430E+01
  rms(prec ) = 0.33712E+01
  weight for this iteration     100.00

 eigenvalues of (default mixing * dielectric matrix)
  average eigenvalue GAMMA=   0.5546
  2.0017  0.5833  0.5833  0.6136  0.4083  0.2333  0.2333  0.1246  0.2097

 Free energy of the ion-electron system (eV)
  ---------------------------------------------------
  alpha Z        PSCENC =      1694.52919351
  Ewald energy   TEWEN  =    226960.68951433
  -Hartree energ DENC   =   -272304.02415555
  -exchange      EXHF   =         0.00000000
  -V(xc)+E(xc)   XCENC  =      1304.77648643
  PAW double counting   =     60241.73723494   -59167.92437191
  entropy T*S    EENTRO =        -0.07564657
  eigenvalues    EBANDS =     -4765.43018375
  atomic energy  EATOM  =     45441.73369906
  Solvation  Ediel_sol  =         0.00000000
  ---------------------------------------------------
  free energy    TOTEN  =      -593.98822952 eV

  energy without entropy =     -593.91258295  energy(sigma->0) =     -593.95040623


--------------------------------------------------------------------------------------------------------




--------------------------------------- Iteration      1(  15)  ---------------------------------------


    POTLOK:  cpu time    0.1187: real time    0.1217
    SETDIJ:  cpu time    0.0210: real time    0.0210
    EDDIAG:  cpu time    3.0334: real time    3.0418
  RMM-DIIS:  cpu time    8.2650: real time    8.2897
    ORTHCH:  cpu time    0.7327: real time    0.7352
       DOS:  cpu time    0.0009: real time    0.0009
    CHARGE:  cpu time    0.7454: real time    0.7476
    MIXING:  cpu time    0.0046: real time    0.0046
    --------------------------------------------
      LOOP:  cpu time   12.9217: real time   12.9626

 eigenvalue-minimisations  :  7040
 total energy-change (2. order) : 0.1291948E+01  (-0.2193953E+00)
 number of electron     669.0000396 magnetization      38.2246446
 augmentation part      120.3024236 magnetization      30.4458711

 Broyden mixing:
  rms(total) = 0.20298E+01    rms(broyden)= 0.20289E+01
  rms(prec ) = 0.21128E+01
  weight for this iteration     100.00

 eigenvalues of (default mixing * dielectric matrix)
  average eigenvalue GAMMA=   0.5409
[...]
      9.578784  3.235121 12.557746            0           0           0  
      6.405859  0.000000  9.305528            0           0           0  
      9.618361  0.000000  9.344265            0           0           0  
      7.997787  1.237214 11.363860            0           0           0  
     11.091368  1.320715 11.303395            0           0           0  
      8.012627  4.476623  8.097101            0           0           0  
     11.211668  4.480176  8.091380            0           0           0  
      9.573983  0.000000 13.259963    -0.141657    0.000122    0.989916  
 
   2 f  =    7.189466 THz    45.172749 2PiTHz  239.814773 cm-1    29.733253 meV
             X         Y         Z           dx          dy          dz
      1.601066  3.235121  4.852682            0           0           0  
      4.803199  3.235121  4.852682            0           0           0  
      1.601066  0.000000  1.617561            0           0           0  
      4.803199  0.000000  1.617561            0           0           0  
      0.000000  3.235121  1.617561            0           0           0  
      3.202133  3.235121  1.617561            0           0           0  
      0.000000  0.000000  4.852682            0           0           0  
      3.202133  0.000000  4.852682            0           0           0  
      1.618764  3.235121 11.396852            0           0           0  
      4.802797  3.235121 11.375987            0           0           0  
      1.559503  0.000000  8.079583            0           0           0  
      4.804334  0.000000  8.071149            0           0           0  
     12.807331  3.235121  8.114386            0           0           0  
      3.199637  3.235121  8.106608            0           0           0  
      3.107169  0.000000 11.259583            0           0           0  
      0.000000  3.235121  3.613243            0           0           0  
      3.202133  3.235121  3.613243            0           0           0  
      0.000000  0.000000  0.378121            0           0           0  
      3.202133  0.000000  0.378121            0           0           0  
      1.601066  5.230803  4.852682            0           0           0  
      4.803199  5.230803  4.852682            0           0           0  
      1.601066  1.995682  1.617561            0           0           0  
      4.803199  1.995682  1.617561            0           0           0  
      0.000000  3.235121  6.092122            0           0           0  
      3.202133  3.235121  6.092122            0           0           0  
      0.000000  0.000000  2.857000            0           0           0  
      3.202133  0.000000  2.857000            0           0           0  
      1.601066  1.239440  4.852682            0           0           0  
      4.803199  1.239440  4.852682            0           0           0  
      1.601066  4.474561  1.617561            0           0           0  
      4.803199  4.474561  1.617561            0           0           0  
      0.002379  3.235121 10.113169            0           0           0  
      3.213782  3.235121 10.104251            0           0           0  
     12.804502  0.000000  6.830596            0           0           0  
      3.207910  0.000000  6.841853            0           0           0  
      1.754431  5.140621 11.465489            0           0           0  
      4.778286  5.244377 11.391985            0           0           0  
      1.593076  1.993542  8.092580            0           0           0  
      4.804759  1.995037  8.098559            0           0           0  
     12.783975  3.235121 12.560821            0           0           0  
      3.251488  3.235121 12.599022            0           0           0  
      0.006759  0.000000  9.265724            0           0           0  
      3.194005  0.000000  9.297062            0           0           0  
      1.754431  1.329622 11.465489            0           0           0  
      4.778286  1.225866 11.391985            0           0           0  
      1.593076  4.476701  8.092580            0           0           0  
      4.804759  4.475206  8.098559            0           0           0  
      8.005332  3.235121  4.852682            0           0           0  
     11.207465  3.235121  4.852682            0           0           0  
      8.005332  0.000000  1.617561            0           0           0  
     11.207465  0.000000  1.617561            0           0           0  
      6.404266  3.235121  1.617561            0           0           0  
      9.606399  3.235121  1.617561            0           0           0  
      6.404266  0.000000  4.852682            0           0           0  
      9.606399  0.000000  4.852682            0           0           0  
      7.994597  3.235121 11.356417            0           0           0  
     11.189880  3.235121 11.377884            0           0           0  
      8.034332  0.000000  8.094172            0           0           0  
     11.232800  0.000000  8.094347            0           0           0  
      6.407082  3.235121  8.108131            0           0           0  
      9.608324  3.235121  8.102608            0           0           0  
      6.394734  0.000000 11.249850            0           0           0  
      9.679287  0.000000 11.470961            0           0           0  
      6.404266  3.235121  3.613243            0           0           0  
      9.606399  3.235121  3.613243            0           0           0  
      6.404266  0.000000  0.378121            0           0           0  
      9.606399  0.000000  0.378121            0           0           0  
      8.005332  5.230803  4.852682            0           0           0  
     11.207465  5.230803  4.852682            0           0           0  
      8.005332  1.995682  1.617561            0           0           0  
     11.207465  1.995682  1.617561            0           0           0  
      6.404266  3.235121  6.092122            0           0           0  
      9.606399  3.235121  6.092122            0           0           0  
      6.404266  0.000000  2.857000            0           0           0  
      9.606399  0.000000  2.857000            0           0           0  
      8.005332  1.239440  4.852682            0           0           0  
     11.207465  1.239440  4.852682            0           0           0  
      8.005332  4.474561  1.617561            0           0           0  
     11.207465  4.474561  1.617561            0           0           0  
      6.397818  3.235121 10.096422            0           0           0  
      9.578160  3.235121 10.087939            0           0           0  
      6.416556  0.000000  6.844769            0           0           0  
      9.605445  0.000000  6.849122            0           0           0  
      7.997787  5.233029 11.363860            0           0           0  
     11.091368  5.149528 11.303395            0           0           0  
      8.012627  1.993620  8.097101            0           0           0  
     11.211668  1.990067  8.091380            0           0           0  
      6.405377  3.235121 12.547447            0           0           0  
      9.578784  3.235121 12.557746            0           0           0  
      6.405859  0.000000  9.305528            0           0           0  
      9.618361  0.000000  9.344265            0           0           0  
      7.997787  1.237214 11.363860            0           0           0  
     11.091368  1.320715 11.303395            0           0           0  
      8.012627  4.476623  8.097101            0           0           0  
     11.211668  4.480176  8.091380            0           0           0  
      9.573983  0.000000 13.259963    -0.989914    0.001803   -0.141657  
 
   3 f  =    6.638705 THz    41.712214 2PiTHz  221.443360 cm-1    27.455487 meV
             X         Y         Z           dx          dy          dz
      1.601066  3.235121  4.852682            0           0           0  
      4.803199  3.235121  4.852682            0           0           0  
      1.601066  0.000000  1.617561            0           0           0  
      4.803199  0.000000  1.617561            0           0           0  
      0.000000  3.235121  1.617561            0           0           0  
      3.202133  3.235121  1.617561            0           0           0  
      0.000000  0.000000  4.852682            0           0           0  
      3.202133  0.000000  4.852682            0           0           0  
      1.618764  3.235121 11.396852            0           0           0  
      4.802797  3.235121 11.375987            0           0           0  
      1.559503  0.000000  8.079583            0           0           0  
      4.804334  0.000000  8.071149            0           0           0  
     12.807331  3.235121  8.114386            0           0           0  
      3.199637  3.235121  8.106608            0           0           0  
      3.107169  0.000000 11.259583            0           0           0  
      0.000000  3.235121  3.613243            0           0           0  
      3.202133  3.235121  3.613243            0           0           0  
      0.000000  0.000000  0.378121            0           0           0  
      3.202133  0.000000  0.378121            0           0           0  
      1.601066  5.230803  4.852682            0           0           0  
      4.803199  5.230803  4.852682            0           0           0  
      1.601066  1.995682  1.617561            0           0           0  
      4.803199  1.995682  1.617561            0           0           0  
      0.000000  3.235121  6.092122            0           0           0  
      3.202133  3.235121  6.092122            0           0           0  
      0.000000  0.000000  2.857000            0           0           0  
      3.202133  0.000000  2.857000            0           0           0  
      1.601066  1.239440  4.852682            0           0           0  
      4.803199  1.239440  4.852682            0           0           0  
      1.601066  4.474561  1.617561            0           0           0  
      4.803199  4.474561  1.617561            0           0           0  
      0.002379  3.235121 10.113169            0           0           0  
      3.213782  3.235121 10.104251            0           0           0  
     12.804502  0.000000  6.830596            0           0           0  
      3.207910  0.000000  6.841853            0           0           0  
      1.754431  5.140621 11.465489            0           0           0  
      4.778286  5.244377 11.391985            0           0           0  
      1.593076  1.993542  8.092580            0           0           0  
      4.804759  1.995037  8.098559            0           0           0  
     12.783975  3.235121 12.560821            0           0           0  
      3.251488  3.235121 12.599022            0           0           0  
      0.006759  0.000000  9.265724            0           0           0  
      3.194005  0.000000  9.297062            0           0           0  
      1.754431  1.329622 11.465489            0           0           0  
      4.778286  1.225866 11.391985            0           0           0  
      1.593076  4.476701  8.092580            0           0           0  
      4.804759  4.475206  8.098559            0           0           0  
      8.005332  3.235121  4.852682            0           0           0  
     11.207465  3.235121  4.852682            0           0           0  
      8.005332  0.000000  1.617561            0           0           0  
     11.207465  0.000000  1.617561            0           0           0  
      6.404266  3.235121  1.617561            0           0           0  
      9.606399  3.235121  1.617561            0           0           0  
      6.404266  0.000000  4.852682            0           0           0  
      9.606399  0.000000  4.852682            0           0           0  
      7.994597  3.235121 11.356417            0           0           0  
     11.189880  3.235121 11.377884            0           0           0  
      8.034332  0.000000  8.094172            0           0           0  
     11.232800  0.000000  8.094347            0           0           0  
      6.407082  3.235121  8.108131            0           0           0  
      9.608324  3.235121  8.102608            0           0           0  
      6.394734  0.000000 11.249850            0           0           0  
      9.679287  0.000000 11.470961            0           0           0  
      6.404266  3.235121  3.613243            0           0           0  
      9.606399  3.235121  3.613243            0           0           0  
      6.404266  0.000000  0.378121            0           0           0  
      9.606399  0.000000  0.378121            0           0           0  
      8.005332  5.230803  4.852682            0           0           0  
     11.207465  5.230803  4.852682            0           0           0  
      8.005332  1.995682  1.617561            0           0           0  
     11.207465  1.995682  1.617561            0           0           0  
      6.404266  3.235121  6.092122            0           0           0  
      9.606399  3.235121  6.092122            0           0           0  
      6.404266  0.000000  2.857000            0           0           0  
      9.606399  0.000000  2.857000            0           0           0  
      8.005332  1.239440  4.852682            0           0           0  
     11.207465  1.239440  4.852682            0           0           0  
      8.005332  4.474561  1.617561            0           0           0  
     11.207465  4.474561  1.617561            0           0           0  
      6.397818  3.235121 10.096422            0           0           0  
      9.578160  3.235121 10.087939            0           0           0  
      6.416556  0.000000  6.844769            0           0           0  
      9.605445  0.000000  6.849122            0           0           0  
      7.997787  5.233029 11.363860            0           0           0  
     11.091368  5.149528 11.303395            0           0           0  
      8.012627  1.993620  8.097101            0           0           0  
     11.211668  1.990067  8.091380            0           0           0  
      6.405377  3.235121 12.547447            0           0           0  
      9.578784  3.235121 12.557746            0           0           0  
      6.405859  0.000000  9.305528            0           0           0  
      9.618361  0.000000  9.344265            0           0           0  
      7.997787  1.237214 11.363860            0           0           0  
     11.091368  1.320715 11.303395            0           0           0  
      8.012627  4.476623  8.097101            0           0           0  
     11.211668  4.480176  8.091380            0           0           0  
      9.573983  0.000000 13.259963     0.001802    0.999998    0.000134  
 
 Finite differences POTIM=  1.500000000000000E-002
  LATTYP: Found a simple orthorhombic cell.
 ALAT       =     6.4702430000
 B/A-ratio  =     1.9796060210
 C/A-ratio  =     4.0000000000
  
  Lattice vectors:
  
 A1 = (   0.0000000000,  -6.4702430000,   0.0000000000)
 A2 = ( -12.8085320000,   0.0000000000,   0.0000000000)
 A3 = (   0.0000000000,   0.0000000000, -25.8809720000)


Analysis of symmetry for initial positions (statically):
=====================================================================
 Subroutine PRICEL returns:
 Original cell was already a primitive cell.
 

 Routine SETGRP: Setting up the symmetry group for a 
 simple orthorhombic supercell.


 Subroutine GETGRP returns: Found  2 space group operations
 (whereof  2 operations were pure point group operations)
 out of a pool of  8 trial point group operations.


The static configuration has the point symmetry C_1h.


Analysis of symmetry for dynamics (positions and initial velocities):
=====================================================================
 Subroutine PRICEL returns:
 Original cell was already a primitive cell.
 

 Routine SETGRP: Setting up the symmetry group for a 
 simple orthorhombic supercell.


 Subroutine GETGRP returns: Found  2 space group operations
 (whereof  2 operations were pure point group operations)
 out of a pool of  8 trial point group operations.


The dynamic configuration has the point symmetry C_1h.


Analysis of constrained symmetry for selective dynamics:
=====================================================================
 Subroutine PRICEL returns:
 Original cell was already a primitive cell.
 

 Routine SETGRP: Setting up the symmetry group for a 
 simple orthorhombic supercell.


 Subroutine GETGRP returns: Found  2 space group operations
 (whereof  2 operations were pure point group operations)
 out of a pool of  8 trial point group operations.


The constrained configuration has the point symmetry C_1h.


Analysis of structural, dynamic, and magnetic symmetry:
=====================================================================
 Subroutine PRICEL returns:
 Original cell was already a primitive cell.
 

 Routine SETGRP: Setting up the symmetry group for a 
 simple orthorhombic supercell.


 Subroutine GETGRP returns: Found  2 space group operations
 (whereof  2 operations were pure point group operations)
 out of a pool of  8 trial point group operations.


The magnetic configuration has the point symmetry C_1h.


 Subroutine INISYM returns: Found  2 space group operations
 (whereof  2 operations are pure point group operations),
 and found     1 'primitive' translations

 
 KPOINTS: Automatic mesh                          

Automatic generation of k-mesh.
Space group operators:
 irot       det(A)        alpha          n_x          n_y          n_z        tau_x        tau_y        tau_z
    1     1.000000     0.000001     1.000000     0.000000     0.000000     0.000000     0.000000     0.000000
    2    -1.000000   180.000000     0.000000     1.000000     0.000000     0.000000     0.000000     0.000000
 
 Subroutine IBZKPT returns following result:
 ===========================================
 
 Found      4 irreducible k-points:
 
 Following reciprocal coordinates:
            Coordinates               Weight
  0.000000  0.000000  0.000000      1.000000
  0.333333  0.000000  0.000000      2.000000
  0.000000  0.333333  0.000000      2.000000
  0.333333  0.333333  0.000000      4.000000
 
 Following cartesian coordinates:
            Coordinates               Weight
  0.000000  0.000000  0.000000      1.000000
  0.026024  0.000000  0.000000      2.000000
  0.000000  0.051518  0.000000      2.000000
  0.026024  0.051518  0.000000      4.000000
 
     LOOP+:  cpu time  113.8451: real time  114.2574
    4ORBIT:  cpu time    0.0000: real time    0.0000

 total amount of memory used by VASP MPI-rank0   171701. kBytes
=======================================================================

   base      :      30000. kBytes
   nonlr-proj:      19173. kBytes
   fftplans  :       4196. kBytes
   grid      :      37119. kBytes
   one-center:       2985. kBytes
   wavefun   :      78228. kBytes
 
  
  
 General timing and accounting informations for this job:
 ========================================================
  
                  Total CPU time used (sec):     1902.659
                            User time (sec):     1865.190
                          System time (sec):       37.470
                         Elapsed time (sec):     1911.009
  
                   Maximum memory used (kb):      402772.
                   Average memory used (kb):           0.
  
                          Minor page faults:      1225894
                          Major page faults:            5
                 Voluntary context switches:         9310
