 vasp.5.4.4.18Apr17-6-g9f103f2a35 (build Feb 25 2019 10:51:38) complex          
  
 executed on             LinuxIFC date 2023.03.14  11:37:34
 running on   40 total cores
 distrk:  each k-point on   40 cores,    1 groups
 distr:  one band on NCORES_PER_BAND=  10 cores,    4 groups


--------------------------------------------------------------------------------------------------------


 INCAR:
 POTCAR:    PAW_PBE Ir 06Sep2000                  
 POTCAR:    PAW_PBE O 08Apr2002                   
 POTCAR:    PAW_PBE Ir 06Sep2000                  
 POTCAR:    PAW_PBE O 08Apr2002                   
 POTCAR:    PAW_PBE Ir 06Sep2000                  
   VRHFIN =Ir: s1d8                                                             
   LEXCH  = PE                                                                  
   EATOM  =   560.1833 eV,   41.1723 Ry                                         
                                                                                
   TITEL  = PAW_PBE Ir 06Sep2000                                                
   LULTRA =        F    use ultrasoft PP ?                                      
   IUNSCR =        1    unscreen: 0-lin 1-nonlin 2-no                           
   RPACOR =    2.250    partial core radius                                     
   POMASS =  192.220; ZVAL   =    9.000    mass and valenz                      
   RCORE  =    2.600    outmost cutoff radius                                   
   RWIGS  =    2.690; RWIGS  =    1.423    wigner-seitz radius (au A)           
   ENMAX  =  210.864; ENMIN  =  158.148 eV                                      
   RCLOC  =    1.857    cutoff for local pot                                    
   LCOR   =        T    correct aug charges                                     
   LPAW   =        T    paw PP                                                  
   EAUG   =  318.962                                                            
   DEXC   =    0.000                                                            
   RMAX   =    2.667    core radius for proj-oper                               
   RAUG   =    1.300    factor for augmentation sphere                          
   RDEP   =    2.748    radius for radial grids                                 
   RDEPT  =    2.300    core radius for aug-charge                              
                                                                                
   Atomic configuration                                                         
   16 entries                                                                   
     n  l   j            E        occ.                                          
     1  0  0.50    -76100.0449   2.0000                                         
     2  0  0.50    -13308.1683   2.0000                                         
     2  1  1.50    -11558.0021   6.0000                                         
     3  0  0.50     -3110.7274   2.0000                                         
     3  1  1.50     -2599.2109   6.0000                                         
     3  2  2.50     -2037.1515  10.0000                                         
     4  0  0.50      -661.6001   2.0000                                         
     4  1  1.50      -493.8981   6.0000                                         
     4  2  2.50      -288.1909  10.0000                                         
     4  3  3.50       -59.5718  14.0000                                         
     5  0  0.50       -95.3879   2.0000                                         
     5  1  1.50       -52.2747   6.0000                                         
     5  2  2.50        -5.4180   8.0000                                         
     6  0  0.50        -5.5479   1.0000                                         
     6  1  1.50        -6.8029   0.0000                                         
     5  3  2.50        -1.3606   0.0000                                         
   Description                                                                  
     l       E           TYP  RCUT    TYP  RCUT                                 
     2     -5.4179967     23  2.600                                             
     2     -6.7785793     23  2.600                                             
     0     -5.5478636     23  2.600                                             
     0      2.2542272     23  2.600                                             
     1     -2.7211652     23  2.600                                             
     1     20.4087390     23  2.600                                             
  local pseudopotential read in
  partial core-charges read in
  partial kinetic energy density read in
  atomic valenz-charges read in
  non local Contribution for L=           2  read in
    real space projection operators read in
  non local Contribution for L=           2  read in
    real space projection operators read in
  non local Contribution for L=           0  read in
    real space projection operators read in
  non local Contribution for L=           0  read in
    real space projection operators read in
  non local Contribution for L=           1  read in
    real space projection operators read in
  non local Contribution for L=           1  read in
    real space projection operators read in
    PAW grid and wavefunctions read in
 
   number of l-projection  operators is LMAX  =           6
   number of lm-projection operators is LMMAX =          18
 
 POTCAR:    PAW_PBE O 08Apr2002                   
   VRHFIN =O: s2p4                                                              
   LEXCH  = PE                                                                  
   EATOM  =   432.3788 eV,   31.7789 Ry                                         
                                                                                
   TITEL  = PAW_PBE O 08Apr2002                                                 
   LULTRA =        F    use ultrasoft PP ?                                      
   IUNSCR =        1    unscreen: 0-lin 1-nonlin 2-no                           
   RPACOR =    1.200    partial core radius                                     
   POMASS =   16.000; ZVAL   =    6.000    mass and valenz                      
   RCORE  =    1.520    outmost cutoff radius                                   
   RWIGS  =    1.550; RWIGS  =    0.820    wigner-seitz radius (au A)           
   ENMAX  =  400.000; ENMIN  =  300.000 eV                                      
   ICORE  =        2    local potential                                         
   LCOR   =        T    correct aug charges                                     
   LPAW   =        T    paw PP                                                  
   EAUG   =  605.392                                                            
   DEXC   =    0.000                                                            
   RMAX   =    1.553    core radius for proj-oper                               
   RAUG   =    1.300    factor for augmentation sphere                          
   RDEP   =    1.550    radius for radial grids                                 
   RDEPT  =    1.329    core radius for aug-charge                              
                                                                                
   Atomic configuration                                                         
    4 entries                                                                   
     n  l   j            E        occ.                                          
     1  0  0.50      -514.6923   2.0000                                         
     2  0  0.50       -23.9615   2.0000                                         
     2  1  0.50        -9.0305   4.0000                                         
     3  2  1.50        -9.5241   0.0000                                         
   Description                                                                  
     l       E           TYP  RCUT    TYP  RCUT                                 
     0    -23.9615318     23  1.200                                             
     0     -9.5240782     23  1.200                                             
     1     -9.0304911     23  1.520                                             
     1      8.1634956     23  1.520                                             
     2     -9.5240782      7  1.500                                             
  local pseudopotential read in
  partial core-charges read in
  partial kinetic energy density read in
  kinetic energy density of atom read in
  atomic valenz-charges read in
  non local Contribution for L=           0  read in
    real space projection operators read in
  non local Contribution for L=           0  read in
    real space projection operators read in
  non local Contribution for L=           1  read in
    real space projection operators read in
  non local Contribution for L=           1  read in
    real space projection operators read in
    PAW grid and wavefunctions read in
 
   number of l-projection  operators is LMAX  =           4
   number of lm-projection operators is LMMAX =           8
 
 POTCAR:    PAW_PBE Ir 06Sep2000                  
   VRHFIN =Ir: s1d8                                                             
   LEXCH  = PE                                                                  
   EATOM  =   560.1833 eV,   41.1723 Ry                                         
                                                                                
   TITEL  = PAW_PBE Ir 06Sep2000                                                
   LULTRA =        F    use ultrasoft PP ?                                      
   IUNSCR =        1    unscreen: 0-lin 1-nonlin 2-no                           
   RPACOR =    2.250    partial core radius                                     
   POMASS =  192.220; ZVAL   =    9.000    mass and valenz                      
   RCORE  =    2.600    outmost cutoff radius                                   
   RWIGS  =    2.690; RWIGS  =    1.423    wigner-seitz radius (au A)           
   ENMAX  =  210.864; ENMIN  =  158.148 eV                                      
   RCLOC  =    1.857    cutoff for local pot                                    
   LCOR   =        T    correct aug charges                                     
   LPAW   =        T    paw PP                                                  
   EAUG   =  318.962                                                            
   DEXC   =    0.000                                                            
   RMAX   =    2.667    core radius for proj-oper                               
   RAUG   =    1.300    factor for augmentation sphere                          
   RDEP   =    2.748    radius for radial grids                                 
   RDEPT  =    2.300    core radius for aug-charge                              
                                                                                
   Atomic configuration                                                         
   16 entries                                                                   
     n  l   j            E        occ.                                          
     1  0  0.50    -76100.0449   2.0000                                         
     2  0  0.50    -13308.1683   2.0000                                         
     2  1  1.50    -11558.0021   6.0000                                         
     3  0  0.50     -3110.7274   2.0000                                         
     3  1  1.50     -2599.2109   6.0000                                         
     3  2  2.50     -2037.1515  10.0000                                         
     4  0  0.50      -661.6001   2.0000                                         
     4  1  1.50      -493.8981   6.0000                                         
     4  2  2.50      -288.1909  10.0000                                         
     4  3  3.50       -59.5718  14.0000                                         
     5  0  0.50       -95.3879   2.0000                                         
     5  1  1.50       -52.2747   6.0000                                         
     5  2  2.50        -5.4180   8.0000                                         
     6  0  0.50        -5.5479   1.0000                                         
     6  1  1.50        -6.8029   0.0000                                         
     5  3  2.50        -1.3606   0.0000                                         
   Description                                                                  
     l       E           TYP  RCUT    TYP  RCUT                                 
     2     -5.4179967     23  2.600                                             
     2     -6.7785793     23  2.600                                             
     0     -5.5478636     23  2.600                                             
     0      2.2542272     23  2.600                                             
     1     -2.7211652     23  2.600                                             
     1     20.4087390     23  2.600                                             
  local pseudopotential read in
  partial core-charges read in
  partial kinetic energy density read in
  atomic valenz-charges read in
  non local Contribution for L=           2  read in
    real space projection operators read in
  non local Contribution for L=           2  read in
    real space projection operators read in
  non local Contribution for L=           0  read in
    real space projection operators read in
  non local Contribution for L=           0  read in
    real space projection operators read in
  non local Contribution for L=           1  read in
    real space projection operators read in
  non local Contribution for L=           1  read in
    real space projection operators read in
    PAW grid and wavefunctions read in
 
   number of l-projection  operators is LMAX  =           6
   number of lm-projection operators is LMMAX =          18
 
 POTCAR:    PAW_PBE O 08Apr2002                   
   VRHFIN =O: s2p4                                                              
   LEXCH  = PE                                                                  
   EATOM  =   432.3788 eV,   31.7789 Ry                                         
                                                                                
   TITEL  = PAW_PBE O 08Apr2002                                                 
   LULTRA =        F    use ultrasoft PP ?                                      
   IUNSCR =        1    unscreen: 0-lin 1-nonlin 2-no                           
   RPACOR =    1.200    partial core radius                                     
   POMASS =   16.000; ZVAL   =    6.000    mass and valenz                      
   RCORE  =    1.520    outmost cutoff radius                                   
   RWIGS  =    1.550; RWIGS  =    0.820    wigner-seitz radius (au A)           
   ENMAX  =  400.000; ENMIN  =  300.000 eV                                      
   ICORE  =        2    local potential                                         
   LCOR   =        T    correct aug charges                                     
   LPAW   =        T    paw PP                                                  
   EAUG   =  605.392                                                            
   DEXC   =    0.000                                                            
   RMAX   =    1.553    core radius for proj-oper                               
   RAUG   =    1.300    factor for augmentation sphere                          
   RDEP   =    1.550    radius for radial grids                                 
   RDEPT  =    1.329    core radius for aug-charge                              
                                                                                
   Atomic configuration                                                         
    4 entries                                                                   
     n  l   j            E        occ.                                          
     1  0  0.50      -514.6923   2.0000                                         
     2  0  0.50       -23.9615   2.0000                                         
     2  1  0.50        -9.0305   4.0000                                         
     3  2  1.50        -9.5241   0.0000                                         
   Description                                                                  
     l       E           TYP  RCUT    TYP  RCUT                                 
     0    -23.9615318     23  1.200                                             
     0     -9.5240782     23  1.200                                             
     1     -9.0304911     23  1.520                                             
     1      8.1634956     23  1.520                                             
     2     -9.5240782      7  1.500                                             
  local pseudopotential read in
  partial core-charges read in
  partial kinetic energy density read in
  kinetic energy density of atom read in
  atomic valenz-charges read in
  non local Contribution for L=           0  read in
    real space projection operators read in
  non local Contribution for L=           0  read in
    real space projection operators read in
  non local Contribution for L=           1  read in
    real space projection operators read in
  non local Contribution for L=           1  read in
    real space projection operators read in
    PAW grid and wavefunctions read in
 
   number of l-projection  operators is LMAX  =           4
   number of lm-projection operators is LMMAX =           8
 
 Optimization of the real space projectors (new method)

 maximal supplied QI-value         = 14.36
 optimisation between [QCUT,QGAM] = [ 11.35, 22.84] = [ 36.05,146.02] Ry 
 Optimized for a Real-space Cutoff    1.52 Angstroem

   l    n(q)    QCUT    max X(q) W(low)/X(q) W(high)/X(q)  e(spline) 
   2      9    11.346   134.116    0.47E-03    0.13E-03    0.92E-06
   2      9    11.346   130.192    0.47E-03    0.13E-03    0.92E-06
   0     10    11.346    60.310    0.74E-04    0.13E-03    0.69E-06
   0     10    11.346    39.218    0.68E-04    0.12E-03    0.65E-06
   1     10    11.346    18.439    0.15E-03    0.34E-04    0.20E-06
   1     10    11.346    12.760    0.12E-03    0.31E-04    0.16E-06
 Optimization of the real space projectors (new method)

 maximal supplied QI-value         = 24.76
 optimisation between [QCUT,QGAM] = [ 11.39, 22.77] = [ 36.31,145.25] Ry 
 Optimized for a Real-space Cutoff    1.00 Angstroem

   l    n(q)    QCUT    max X(q) W(low)/X(q) W(high)/X(q)  e(spline) 
   0      7    11.387    20.381    0.39E-03    0.13E-02    0.15E-06
   0      7    11.387    15.268    0.42E-03    0.14E-02    0.17E-06
   1      6    11.387     5.964    0.41E-03    0.11E-02    0.17E-06
   1      6    11.387     5.382    0.39E-03    0.87E-03    0.15E-06
 Optimization of the real space projectors (new method)

 maximal supplied QI-value         = 14.36
 optimisation between [QCUT,QGAM] = [ 11.35, 22.84] = [ 36.05,146.02] Ry 
 Optimized for a Real-space Cutoff    1.52 Angstroem

   l    n(q)    QCUT    max X(q) W(low)/X(q) W(high)/X(q)  e(spline) 
   2      9    11.346   134.116    0.47E-03    0.13E-03    0.92E-06
   2      9    11.346   130.192    0.47E-03    0.13E-03    0.92E-06
   0     10    11.346    60.310    0.74E-04    0.13E-03    0.69E-06
   0     10    11.346    39.218    0.68E-04    0.12E-03    0.65E-06
   1     10    11.346    18.439    0.15E-03    0.34E-04    0.20E-06
   1     10    11.346    12.760    0.12E-03    0.31E-04    0.16E-06
 Optimization of the real space projectors (new method)

 maximal supplied QI-value         = 24.76
 optimisation between [QCUT,QGAM] = [ 11.39, 22.77] = [ 36.31,145.25] Ry 
 Optimized for a Real-space Cutoff    1.00 Angstroem

   l    n(q)    QCUT    max X(q) W(low)/X(q) W(high)/X(q)  e(spline) 
   0      7    11.387    20.381    0.39E-03    0.13E-02    0.15E-06
   0      7    11.387    15.268    0.42E-03    0.14E-02    0.17E-06
   1      6    11.387     5.964    0.41E-03    0.11E-02    0.17E-06
   1      6    11.387     5.382    0.39E-03    0.87E-03    0.15E-06

 ----------------------------------------------------------------------------- 
|                                                                             |
|  ADVICE TO THIS USER RUNNING 'VASP/VAMP'   (HEAR YOUR MASTER'S VOICE ...):  |
|                                                                             |
|      You enforced a specific xc-type in the INCAR file,                     |
|      a different type was found on the POTCAR file                          |
|          I HOPE YOU KNOW, WHAT YOU ARE  DOING                               |
|                                                                             |
 ----------------------------------------------------------------------------- 

  PAW_PBE Ir 06Sep2000                  :
 energy of atom  1       EATOM= -560.1833
 kinetic energy error for atom=    0.0018 (will be added to EATOM!!)
  PAW_PBE O 08Apr2002                   :
 energy of atom  2       EATOM= -432.3788
 kinetic energy error for atom=    0.0224 (will be added to EATOM!!)
  PAW_PBE Ir 06Sep2000                  :
 energy of atom  3       EATOM= -560.1833
 kinetic energy error for atom=    0.0018 (will be added to EATOM!!)
  PAW_PBE O 08Apr2002                   :
 energy of atom  4       EATOM= -432.3788
 kinetic energy error for atom=    0.0224 (will be added to EATOM!!)
 
 
 POSCAR: Ir  O Ir  O                             
  positions in cartesian coordinates
  No initial velocities read in
 exchange correlation table for  LEXCH =        9
   RHO(1)=    0.500       N(1)  =     2000
   RHO(2)=  100.500       N(2)  =     4000

 VTST: version 3.2, (02/03/18)

 CHAIN: initializing optimizer
 
 OPT: Using VASP Conjugate-Gradient optimizer
 CHAIN: Read ICHAIN            0
 
 POSCAR: Ir  O Ir  O                             
  positions in cartesian coordinates
  No initial velocities read in
 


--------------------------------------------------------------------------------------------------------


 ion  position               nearest neighbor table
   1  0.125  0.500  0.188-  21 2.00  29 2.00  17 2.02  25 2.02  26 2.02  18 2.02   2 3.20  50 3.20

   2  0.375  0.500  0.188-  22 2.00  30 2.00  26 2.02  18 2.02  65 2.02  73 2.02   1 3.20  49 3.20

   3  0.125  0.000  0.062-  23 2.00  31 2.00  19 2.02  27 2.02  28 2.02  20 2.02   4 3.20  52 3.20

   4  0.375  0.000  0.062-  24 2.00  32 2.00  28 2.02  20 2.02  67 2.02  75 2.02   3 3.20  51 3.20

   5  0.000  0.500  0.062-  17 2.00  23 2.02  31 2.02  72 2.02  80 2.02   6 3.20  54 3.20
   6  0.250  0.500  0.062-  18 2.00  23 2.02  24 2.02  31 2.02  32 2.02   5 3.20  53 3.20
   7  0.000  0.000  0.188-  35 1.99  27 2.00  29 2.02  21 2.02  70 2.02  78 2.02   8 3.20  56 3.20

   8  0.250  0.000  0.188-  36 1.98  28 2.00  21 2.02  29 2.02  30 2.02  22 2.02   7 3.20  55 3.20

   9  0.125  0.500  0.439-  41 1.99  42 2.00  37 2.01  45 2.01  34 2.04  33 2.04  58 3.20  10 3.20

  10  0.375  0.500  0.439-  89 1.99  42 2.00  38 2.01  46 2.01  34 2.04  81 2.04  57 3.20   9 3.20

  11  0.125  0.000  0.312-  39 1.99  47 1.99  43 2.02  44 2.02  35 2.02  36 2.03  12 3.21  60 3.22

  12  0.375  0.000  0.312-  40 2.00  48 2.00  90 2.02  44 2.02  83 2.02  36 2.03  11 3.21  59 3.22

  13  1.000  0.500  0.313-  33 1.99  25 2.01  39 2.02  47 2.02  88 2.03  95 2.03  62 3.20  14 3.20

  14  0.250  0.500  0.313-  34 1.99  26 2.01  40 2.03  48 2.03  47 2.03  39 2.03  61 3.20  13 3.20

  15  0.000  0.000  0.435-  43 1.95  86 2.02  93 2.02  37 2.03  45 2.03  16 3.20  64 3.21
  16  0.250  0.000  0.435-  44 1.96  37 2.02  45 2.02  46 2.02  38 2.02  63 3.20  15 3.20
  17  0.000  0.500  0.140-   5 2.00   1 2.02  50 2.02
  18  0.250  0.500  0.140-   6 2.00   2 2.02   1 2.02
  19  0.000  0.000  0.015-   3 2.02  52 2.02
  20  0.250  0.000  0.015-   3 2.02   4 2.02
  21  0.125  0.808  0.188-   1 2.00   7 2.02   8 2.02
  22  0.375  0.808  0.188-   2 2.00   8 2.02  55 2.02
  23  0.125  0.308  0.062-   3 2.00   5 2.02   6 2.02
  24  0.375  0.308  0.062-   4 2.00   6 2.02  53 2.02
  25  0.000  0.500  0.235-  13 2.01   1 2.02  50 2.02
  26  0.250  0.500  0.235-  14 2.01   2 2.02   1 2.02
  27  0.000  0.000  0.110-   7 2.00   3 2.02  52 2.02
  28  0.250  0.000  0.110-   8 2.00   4 2.02   3 2.02
  29  0.125  0.192  0.188-   1 2.00   7 2.02   8 2.02
  30  0.375  0.192  0.188-   2 2.00   8 2.02  55 2.02
  31  0.125  0.692  0.062-   3 2.00   5 2.02   6 2.02
  32  0.375  0.692  0.062-   4 2.00   6 2.02  53 2.02
  33  0.000  0.500  0.390-  13 1.99  58 2.03   9 2.04
  34  0.250  0.500  0.390-  14 1.99   9 2.04  10 2.04
  35  0.999  0.000  0.264-   7 1.99  11 2.02  60 2.04
  36  0.250  0.000  0.264-   8 1.98  11 2.03  12 2.03
  37  0.125  0.810  0.441-   9 2.01  16 2.02  15 2.03
  38  0.375  0.810  0.441-  10 2.01  16 2.02  63 2.02
  39  0.125  0.308  0.313-  11 1.99  13 2.02  14 2.03
  40  0.375  0.308  0.313-  12 2.00  61 2.02  14 2.03
  41  1.000  0.500  0.485-   9 1.99  58 1.99
  42  0.250  0.500  0.485-  10 2.00   9 2.00
  43  1.000  0.000  0.360-  15 1.95  11 2.02  60 2.02
  44  0.250  0.000  0.360-  16 1.96  12 2.02  11 2.02
  45  0.125  0.190  0.441-   9 2.01  16 2.02  15 2.03
  46  0.375  0.190  0.441-  10 2.01  16 2.02  63 2.02
  47  0.125  0.692  0.313-  11 1.99  13 2.02  14 2.03
  48  0.375  0.692  0.313-  12 2.00  61 2.02  14 2.03
  49  0.625  0.500  0.188-  69 2.00  77 2.00  65 2.02  73 2.02  74 2.02  66 2.02   2 3.20  50 3.20

  50  0.875  0.500  0.188-  70 2.00  78 2.00  66 2.02  17 2.02  74 2.02  25 2.02   1 3.20  49 3.20

  51  0.625  0.000  0.062-  71 2.00  79 2.00  67 2.02  75 2.02  76 2.02  68 2.02   4 3.20  52 3.20

  52  0.875  0.000  0.062-  72 2.00  80 2.00  68 2.02  19 2.02  76 2.02  27 2.02   3 3.20  51 3.20

  53  0.500  0.500  0.062-  65 2.00  32 2.02  24 2.02  71 2.02  79 2.02  54 3.20   6 3.20
  54  0.750  0.500  0.062-  66 2.00  71 2.02  72 2.02  79 2.02  80 2.02  53 3.20   5 3.20
  55  0.500  0.000  0.188-  83 1.99  75 2.00  69 2.02  22 2.02  77 2.02  30 2.02   8 3.20  56 3.20

  56  0.750  0.000  0.188-  84 1.99  76 2.00  69 2.02  77 2.02  78 2.02  70 2.02   7 3.20  55 3.20

  57  0.625  0.500  0.438-  89 1.99  85 2.00  92 2.00  81 2.03  82 2.04  58 3.20  10 3.20
  58  0.875  0.500  0.438-  41 1.99  86 2.00  93 2.00  33 2.03  82 2.04  57 3.20   9 3.20
  59  0.627  0.000  0.313-  87 1.99  94 1.99  84 2.02  90 2.02  91 2.02  83 2.04  60 3.16  12 3.22

  60  0.874  0.000  0.313-  88 1.99  95 1.99  84 2.02  43 2.02  91 2.02  35 2.04  59 3.16  11 3.22

  61  0.500  0.500  0.313-  81 1.99  73 2.01  40 2.02  48 2.02  87 2.03  94 2.03  62 3.20  14 3.20

  62  0.750  0.500  0.313-  82 1.99  74 2.01  87 2.02  94 2.02  88 2.02  95 2.02  13 3.20  61 3.20

  63  0.500  0.000  0.435-  90 1.95  85 2.02  92 2.02  46 2.02  38 2.02  16 3.20  64 3.21
  64  0.750  0.000  0.443-  96 1.80  92 2.03  85 2.03  93 2.03  86 2.03  91 2.11  63 3.21  15 3.21

  65  0.500  0.500  0.140-  53 2.00  49 2.02   2 2.02
  66  0.750  0.500  0.140-  54 2.00  50 2.02  49 2.02
  67  0.500  0.000  0.015-   4 2.02  51 2.02
  68  0.750  0.000  0.015-  51 2.02  52 2.02
  69  0.625  0.808  0.188-  49 2.00  55 2.02  56 2.02
  70  0.875  0.808  0.188-  50 2.00   7 2.02  56 2.02
  71  0.625  0.308  0.062-  51 2.00  53 2.02  54 2.02
  72  0.875  0.308  0.062-  52 2.00   5 2.02  54 2.02
  73  0.500  0.500  0.235-  61 2.01  49 2.02   2 2.02
  74  0.750  0.500  0.235-  62 2.01  50 2.02  49 2.02
  75  0.500  0.000  0.110-  55 2.00  51 2.02   4 2.02
  76  0.750  0.000  0.110-  56 2.00  52 2.02  51 2.02
  77  0.625  0.192  0.188-  49 2.00  55 2.02  56 2.02
  78  0.875  0.192  0.188-  50 2.00   7 2.02  56 2.02
  79  0.625  0.692  0.062-  51 2.00  53 2.02  54 2.02
  80  0.875  0.692  0.062-  52 2.00   5 2.02  54 2.02
  81  0.500  0.500  0.390-  61 1.99  57 2.03  10 2.04
  82  0.750  0.500  0.390-  62 1.99  58 2.04  57 2.04
  83  0.501  0.000  0.264-  55 1.99  12 2.02  59 2.04
  84  0.750  0.000  0.264-  56 1.99  59 2.02  60 2.02
  85  0.624  0.809  0.438-  57 2.00  63 2.02  64 2.03
  86  0.876  0.809  0.439-  58 2.00  15 2.02  64 2.03
  87  0.625  0.308  0.313-  59 1.99  62 2.02  61 2.03
  88  0.875  0.308  0.313-  60 1.99  62 2.02  13 2.03
  89  0.501  0.500  0.485-  10 1.99  57 1.99
  90  0.500  0.000  0.359-  63 1.95  12 2.02  59 2.02
  91  0.750  0.000  0.362-  59 2.02  60 2.02  64 2.11
  92  0.624  0.191  0.438-  57 2.00  63 2.02  64 2.03
  93  0.876  0.191  0.439-  58 2.00  15 2.02  64 2.03
  94  0.625  0.692  0.313-  59 1.99  62 2.02  61 2.03
  95  0.875  0.692  0.313-  60 1.99  62 2.02  13 2.03
  96  0.749  0.000  0.513-  64 1.80
 
  LATTYP: Found a simple orthorhombic cell.
 ALAT       =     6.4702430000
 B/A-ratio  =     1.9796060210
 C/A-ratio  =     4.0000000000
  
  Lattice vectors:
  
 A1 = (   0.0000000000,  -6.4702430000,   0.0000000000)
 A2 = ( -12.8085320000,   0.0000000000,   0.0000000000)
 A3 = (   0.0000000000,   0.0000000000, -25.8809720000)


Analysis of symmetry for initial positions (statically):
=====================================================================
 Subroutine PRICEL returns:
 Original cell was already a primitive cell.
 

 Routine SETGRP: Setting up the symmetry group for a 
 simple orthorhombic supercell.


 Subroutine GETGRP returns: Found  2 space group operations
 (whereof  2 operations were pure point group operations)
 out of a pool of  8 trial point group operations.


The static configuration has the point symmetry C_1h.


Analysis of symmetry for dynamics (positions and initial velocities):
=====================================================================
 Subroutine PRICEL returns:
 Original cell was already a primitive cell.
 

 Routine SETGRP: Setting up the symmetry group for a 
 simple orthorhombic supercell.


 Subroutine GETGRP returns: Found  2 space group operations
 (whereof  2 operations were pure point group operations)
 out of a pool of  8 trial point group operations.


The dynamic configuration has the point symmetry C_1h.


Analysis of constrained symmetry for selective dynamics:
=====================================================================
 Subroutine PRICEL returns:
 Original cell was already a primitive cell.
 

 Routine SETGRP: Setting up the symmetry group for a 
 simple orthorhombic supercell.


 Subroutine GETGRP returns: Found  2 space group operations
 (whereof  2 operations were pure point group operations)
 out of a pool of  8 trial point group operations.


The constrained configuration has the point symmetry C_1h.


Analysis of structural, dynamic, and magnetic symmetry:
=====================================================================
 Subroutine PRICEL returns:
 Original cell was already a primitive cell.
 

 Routine SETGRP: Setting up the symmetry group for a 
 simple orthorhombic supercell.


 Subroutine GETGRP returns: Found  2 space group operations
 (whereof  2 operations were pure point group operations)
 out of a pool of  8 trial point group operations.


The magnetic configuration has the point symmetry C_1h.


 Subroutine INISYM returns: Found  2 space group operations
 (whereof  2 operations are pure point group operations),
 and found     1 'primitive' translations

 
 
 KPOINTS: Automatic mesh                          

Automatic generation of k-mesh.
Space group operators:
 irot       det(A)        alpha          n_x          n_y          n_z        tau_x        tau_y        tau_z
    1     1.000000     0.000001     1.000000     0.000000     0.000000     0.000000     0.000000     0.000000
    2    -1.000000   180.000000     0.000000     1.000000     0.000000     0.000000     0.000000     0.000000
 
 Subroutine IBZKPT returns following result:
 ===========================================
 
 Found      4 irreducible k-points:
 
 Following reciprocal coordinates:
            Coordinates               Weight
  0.000000  0.000000  0.000000      1.000000
  0.333333  0.000000  0.000000      2.000000
  0.000000  0.333333  0.000000      2.000000
  0.333333  0.333333  0.000000      4.000000
 
 Following cartesian coordinates:
            Coordinates               Weight
  0.000000  0.000000  0.000000      1.000000
  0.026024  0.000000  0.000000      2.000000
  0.000000  0.051518  0.000000      2.000000
  0.026024  0.051518  0.000000      4.000000
 


--------------------------------------------------------------------------------------------------------




 Dimension of arrays:
   k-points           NKPTS =      4   k-points in BZ     NKDIM =      4   number of bands    NBANDS=    432
   number of dos      NEDOS =    301   number of ions     NIONS =     96
   non local maximal  LDIM  =      6   non local SUM 2l+1 LMDIM =     18
   total plane-waves  NPLWV = 362880
   max r-space proj   IRMAX =   2532   max aug-charges    IRDMAX=  12432
   dimension x,y,z NGX =    70 NGY =   36 NGZ =  144
   dimension x,y,z NGXF=   140 NGYF=   72 NGZF=  288
   support grid    NGXF=   140 NGYF=   72 NGZF=  288
   ions per type =              16  32  16  32
   NGX,Y,Z   is equivalent  to a cutoff of   9.09,  9.25,  9.25 a.u.
   NGXF,Y,Z  is equivalent  to a cutoff of  18.17, 18.50, 18.50 a.u.

 SYSTEM =  unknown system                          
 POSCAR =  Ir  O Ir  O                             

 Startparameter for this run:
   NWRITE =      2    write-flag & timer
   PREC   = normal    normal or accurate (medium, high low for compatibility)
   ISTART =      0    job   : 0-new  1-cont  2-samecut
   ICHARG =      2    charge: 1-file 2-atom 10-const
   ISPIN  =      2    spin polarized calculation?
   LNONCOLLINEAR =      F non collinear calculations
   LSORBIT =      F    spin-orbit coupling
   INIWAV =      1    electr: 0-lowe 1-rand  2-diag
   LASPH  =      F    aspherical Exc in radial PAW
   METAGGA=      F    non-selfconsistent MetaGGA calc.

 Electronic Relaxation 1
   ENCUT  =  500.0 eV  36.75 Ry    6.06 a.u.  23.35 11.80 47.19*2*pi/ulx,y,z
   ENINI  =  500.0     initial cutoff
   ENAUG  =  605.4 eV  augmentation charge cutoff
   NELM   =     60;   NELMIN=  4; NELMDL= -5     # of ELM steps 
   EDIFF  = 0.1E-04   stopping-criterion for ELM
   LREAL  =      T    real-space projection
   NLSPLINE    = F    spline interpolate recip. space projectors
   LCOMPAT=      F    compatible to vasp.4.4
   GGA_COMPAT  = T    GGA compatible to vasp.4.4-vasp.4.6
   LMAXPAW     = -100 max onsite density
   LMAXMIX     =    2 max onsite mixed and CHGCAR
   VOSKOWN=      0    Vosko Wilk Nusair interpolation
   ROPT   =   -0.00050  -0.00050  -0.00050  -0.00050
 Ionic relaxation
   EDIFFG = -.5E-01   stopping-criterion for IOM
   NSW    =    500    number of steps for IOM
   NBLOCK =      1;   KBLOCK =    500    inner block; outer block 
   IBRION =      2    ionic relax: 0-MD 1-quasi-New 2-CG
   NFREE  =      1    steps in history (QN), initial steepest desc. (CG)
   ISIF   =      2    stress and relaxation
   IWAVPR =     11    prediction:  0-non 1-charg 2-wave 3-comb
   ISYM   =      2    0-nonsym 1-usesym 2-fastsym
   LCORR  =      T    Harris-Foulkes like correction to forces

   POTIM  = 0.5000    time-step for ionic-motion
   TEIN   =    0.0    initial temperature
   TEBEG  =    0.0;   TEEND  =   0.0 temperature during run
   SMASS  =  -3.00    Nose mass-parameter (am)
   estimated Nose-frequenzy (Omega)   =  0.10E-29 period in steps =****** mass=  -0.375E-26a.u.
   SCALEE = 1.0000    scale energy and forces
   NPACO  =    256;   APACO  = 16.0  distance and # of slots for P.C.
   PSTRESS=    0.0 pullay stress

  Mass of Ions in am
   POMASS = 192.22 16.00192.22 16.00
  Ionic Valenz
   ZVAL   =   9.00  6.00  9.00  6.00
  Atomic Wigner-Seitz radii
   RWIGS  =  -1.00 -1.00 -1.00 -1.00
  virtual crystal weights 
   VCA    =   1.00  1.00  1.00  1.00
   NELECT =     672.0000    total number of electrons
   NUPDOWN=      -1.0000    fix difference up-down

 DOS related values:
   EMIN   =  10.00;   EMAX   =-10.00  energy-range for DOS
   EFERMI =   0.00
   ISMEAR =     0;   SIGMA  =   0.05  broadening in eV -4-tet -1-fermi 0-gaus

 Electronic relaxation 2 (details)
   IALGO  =     68    algorithm
   LDIAG  =      T    sub-space diagonalisation (order eigenvalues)
   LSUBROT=      F    optimize rotation matrix (better conditioning)
   TURBO    =      0    0=normal 1=particle mesh
   IRESTART =      0    0=no restart 2=restart with 2 vectors
   NREBOOT  =      0    no. of reboots
   NMIN     =      0    reboot dimension
   EREF     =   0.00    reference energy to select bands
   IMIX   =      4    mixing-type and parameters
     AMIX     =   0.40;   BMIX     =  1.00
     AMIX_MAG =   1.60;   BMIX_MAG =  1.00
     AMIN     =   0.10
     WC   =   100.;   INIMIX=   1;  MIXPRE=   1;  MAXMIX= -45

 Intra band minimization:
   WEIMIN = 0.0010     energy-eigenvalue tresh-hold
   EBREAK =  0.58E-08  absolut break condition
   DEPER  =   0.30     relativ break condition  

   TIME   =   0.40     timestep for ELM

  volume/ion in A,a.u.               =      22.34       150.77
  Fermi-wavevector in a.u.,A,eV,Ry     =   1.111897  2.101180 16.821075  1.236314
  Thomas-Fermi vector in A             =   2.248465
 
 Write flags
   LWAVE        =      F    write WAVECAR
   LDOWNSAMPLE  =      F    k-point downsampling of WAVECAR
   LCHARG       =      F    write CHGCAR
   LVTOT        =      F    write LOCPOT, total local potential
   LVHAR        =      F    write LOCPOT, Hartree potential only
   LELF         =      F    write electronic localiz. function (ELF)
   LORBIT       =      0    0 simple, 1 ext, 2 COOP (PROOUT), +10 PAW based schemes


 Dipole corrections
   LMONO  =      F    monopole corrections only (constant potential shift)
   LDIPOL =      T    correct potential (dipole corrections)
   IDIPOL =      3    1-x, 2-y, 3-z, 4-all directions 
   EPSILON=  1.0000000 bulk dielectric constant

 Exchange correlation treatment:
   GGA     =    RP    GGA type
   LEXCH   =     9    internal setting for exchange type
   VOSKOWN=      0    Vosko Wilk Nusair interpolation
   LHFCALC =     F    Hartree Fock is set to
   LHFONE  =     F    Hartree Fock one center treatment
   AEXX    =    0.0000 exact exchange contribution

 Linear response parameters
   LEPSILON=     F    determine dielectric tensor
   LRPA    =     F    only Hartree local field effects (RPA)
   LNABLA  =     F    use nabla operator in PAW spheres
   LVEL    =     F    velocity operator in full k-point grid
   LINTERFAST=   F  fast interpolation
   KINTER  =     0    interpolate to denser k-point grid
   CSHIFT  =0.1000    complex shift for real part using Kramers Kronig
   OMEGAMAX=  -1.0    maximum frequency
   DEG_THRESHOLD= 0.2000000E-02 threshold for treating states as degnerate
   RTIME   =   -0.100 relaxation time in fs
  (WPLASMAI=    0.000 imaginary part of plasma frequency in eV, 0.658/RTIME)
   DFIELD  = 0.0000000 0.0000000 0.0000000 field for delta impulse in time
 
 Orbital magnetization related:
   ORBITALMAG=     F  switch on orbital magnetization
   LCHIMAG   =     F  perturbation theory with respect to B field
   DQ        =  0.001000  dq finite difference perturbation B field
   LLRAUG    =     F  two centre corrections for induced B field



--------------------------------------------------------------------------------------------------------


 conjugate gradient relaxation of ions
   using selective dynamics as specified on POSCAR
   WARNING: If single coordinates had been selected the selection of coordinates
            is made according to the corresponding   d i r e c t   coordinates!
            Don't support selection of single cartesian coordinates -- sorry ...
  !
 charge density and potential will be updated during run
 spin polarized calculation
 RMM-DIIS sequential band-by-band and
  variant of blocked Davidson during initial phase
 perform sub-space diagonalisation
    before iterative eigenvector-optimisation
 modified Broyden-mixing scheme, WC =      100.0
 initial mixing is a Kerker type mixing with AMIX =  0.4000 and BMIX =      1.0000
 Hartree-type preconditioning will be used
 using additional bands           96
 real space projection scheme for non local part
 use partial core corrections
 calculate Harris-corrections to forces 
   (improved forces if not selfconsistent)
 use gradient corrections 
 use of overlap-Matrix (Vanderbilt PP)
 Gauss-broadening in eV      SIGMA  =   0.05


--------------------------------------------------------------------------------------------------------


  energy-cutoff  :      500.00
  volume of cell :     2144.87
      direct lattice vectors                 reciprocal lattice vectors
    12.808532000  0.000000000  0.000000000     0.078072959  0.000000000  0.000000000
     0.000000000  6.470243000  0.000000000     0.000000000  0.154553701  0.000000000
     0.000000000  0.000000000 25.880972000     0.000000000  0.000000000  0.038638425

  length of vectors
    12.808532000  6.470243000 25.880972000     0.078072959  0.154553701  0.038638425


 
 k-points in units of 2pi/SCALE and weight: Automatic mesh                          
   0.00000000  0.00000000  0.00000000       0.111
   0.02602432  0.00000000  0.00000000       0.222
   0.00000000  0.05151790  0.00000000       0.222
   0.02602432  0.05151790  0.00000000       0.444
 
 k-points in reciprocal lattice and weights: Automatic mesh                          
   0.00000000  0.00000000  0.00000000       0.111
   0.33333333  0.00000000  0.00000000       0.222
   0.00000000  0.33333333  0.00000000       0.222
   0.33333333  0.33333333  0.00000000       0.444
 
 position of ions in fractional coordinates (direct lattice) 
   0.12500000  0.50000000  0.18750000
   0.37500000  0.50000000  0.18750000
   0.12500000  0.00000000  0.06250000
   0.37500000  0.00000000  0.06250000
   0.00000000  0.50000000  0.06250000
   0.25000000  0.50000000  0.06250000
   0.00000000  0.00000000  0.18750000
   0.25000000  0.00000000  0.18750000
   0.12495207  0.50000000  0.43903306
   0.37516655  0.50000000  0.43904611
   0.12472117  0.00000000  0.31204033
   0.37519039  0.00000000  0.31197077
   0.99987846  0.50000000  0.31303934
   0.25005006  0.50000000  0.31316136
   0.00028922  0.00000000  0.43492381
   0.25003915  0.00000000  0.43530969
   0.00000000  0.50000000  0.13961000
   0.25000000  0.50000000  0.13961000
   0.00000000  0.00000000  0.01461000
   0.25000000  0.00000000  0.01461000
   0.12500000  0.80844000  0.18750000
   0.37500000  0.80844000  0.18750000
   0.12500000  0.30844000  0.06250000
   0.37500000  0.30844000  0.06250000
   0.00000000  0.50000000  0.23539000
   0.25000000  0.50000000  0.23539000
   0.00000000  0.00000000  0.11039000
   0.25000000  0.00000000  0.11039000
   0.12500000  0.19156000  0.18750000
   0.37500000  0.19156000  0.18750000
   0.12500000  0.69156000  0.06250000
   0.37500000  0.69156000  0.06250000
   0.00004757  0.50000000  0.38999906
   0.25006615  0.50000000  0.39018863
   0.99937599  0.00000000  0.26438757
   0.24983347  0.00000000  0.26419007
   0.12540058  0.81001097  0.44067585
   0.37479459  0.80998010  0.44062686
   0.12472852  0.30830676  0.31281480
   0.37524538  0.30840552  0.31286464
   0.99950405  0.50000000  0.48457901
   0.25007490  0.50000000  0.48502540
   0.99988322  0.00000000  0.35957416
   0.25003602  0.00000000  0.35959574
   0.12540058  0.18998903  0.44067585
   0.37479459  0.19001990  0.44062686
   0.12472852  0.69169324  0.31281480
   0.37524538  0.69159448  0.31286464
   0.62500000  0.50000000  0.18750000
   0.87500000  0.50000000  0.18750000
   0.62500000  0.00000000  0.06250000
   0.87500000  0.00000000  0.06250000
   0.50000000  0.50000000  0.06250000
   0.75000000  0.50000000  0.06250000
   0.50000000  0.00000000  0.18750000
   0.75000000  0.00000000  0.18750000
   0.62534176  0.50000000  0.43832690
   0.87492801  0.50000000  0.43837750
   0.62664180  0.00000000  0.31276411
   0.87353894  0.00000000  0.31281811
   0.50019505  0.50000000  0.31307171
   0.75004573  0.50000000  0.31289220
   0.49977064  0.00000000  0.43470158
   0.74993152  0.00000000  0.44319948
   0.50000000  0.50000000  0.13961000
   0.75000000  0.50000000  0.13961000
   0.50000000  0.00000000  0.01461000
   0.75000000  0.00000000  0.01461000
   0.62500000  0.80844000  0.18750000
   0.87500000  0.80844000  0.18750000
   0.62500000  0.30844000  0.06250000
   0.87500000  0.30844000  0.06250000
   0.50000000  0.50000000  0.23539000
   0.75000000  0.50000000  0.23539000
   0.50000000  0.00000000  0.11039000
   0.75000000  0.00000000  0.11039000
   0.62500000  0.19156000  0.18750000
   0.87500000  0.19156000  0.18750000
   0.62500000  0.69156000  0.06250000
   0.87500000  0.69156000  0.06250000
   0.50004665  0.50000000  0.39001929
   0.75020634  0.50000000  0.38962497
   0.50067512  0.00000000  0.26439499
   0.75006789  0.00000000  0.26444215
   0.62440031  0.80875301  0.43837736
   0.87568714  0.80889524  0.43876039
   0.62529840  0.30804723  0.31278669
   0.87488228  0.30802641  0.31280706
   0.50078476  0.50000000  0.48457152
   0.50020977  0.00000000  0.35934580
   0.75004106  0.00000000  0.36166052
   0.62440031  0.19124699  0.43837736
   0.87568714  0.19110476  0.43876039
   0.62529840  0.69195277  0.31278669
   0.87488228  0.69197359  0.31280706
   0.74927504  0.00000000  0.51268770
 
 position of ions in cartesian coordinates  (Angst):
   1.60106650  3.23512150  4.85268225
   4.80319950  3.23512150  4.85268225
   1.60106650  0.00000000  1.61756075
   4.80319950  0.00000000  1.61756075
   0.00000000  3.23512150  1.61756075
   3.20213300  3.23512150  1.61756075
   0.00000000  0.00000000  4.85268225
   3.20213300  0.00000000  4.85268225
   1.60045264  3.23512150 11.36260243
   4.80533273  3.23512150 11.36294000
   1.59749514  0.00000000  8.07590702
   4.80563807  0.00000000  8.07410680
  12.80697521  3.23512150  8.10176241
   3.20277415  3.23512150  8.10492032
   0.00370452  0.00000000 11.25625097
   3.20263439  0.00000000 11.26623789
   0.00000000  3.23512150  3.61324250
   3.20213300  3.23512150  3.61324250
   0.00000000  0.00000000  0.37812100
   3.20213300  0.00000000  0.37812100
   1.60106650  5.23080325  4.85268225
   4.80319950  5.23080325  4.85268225
   1.60106650  1.99568175  1.61756075
   4.80319950  1.99568175  1.61756075
   0.00000000  3.23512150  6.09212200
   3.20213300  3.23512150  6.09212200
   0.00000000  0.00000000  2.85700050
   3.20213300  0.00000000  2.85700050
   1.60106650  1.23943975  4.85268225
   4.80319950  1.23943975  4.85268225
   1.60106650  4.47456125  1.61756075
   4.80319950  4.47456125  1.61756075
   0.00060926  3.23512150 10.09355463
   3.20298033  3.23512150 10.09846093
  12.80053936  0.00000000  6.84260720
   3.19999994  0.00000000  6.83749577
   1.60619734  5.24096780 11.40511941
   4.80056852  5.24076807 11.40385131
   1.59758922  1.99481965  8.09595108
   4.80634240  1.99545865  8.09724104
  12.80217959  3.23512150 12.54137582
   3.20309235  3.23512150 12.55292879
  12.80703619  0.00000000  9.30612869
   3.20259434  0.00000000  9.30668726
   1.60619734  1.22927520 11.40511941
   4.80056852  1.22947493 11.40385131
   1.59758922  4.47542335  8.09595108
   4.80634240  4.47478435  8.09724104
   8.00533250  3.23512150  4.85268225
  11.20746550  3.23512150  4.85268225
   8.00533250  0.00000000  1.61756075
  11.20746550  0.00000000  1.61756075
   6.40426600  3.23512150  1.61756075
   9.60639900  3.23512150  1.61756075
   6.40426600  0.00000000  4.85268225
   9.60639900  0.00000000  4.85268225
   8.00970999  3.23512150 11.34432631
  11.20654339  3.23512150 11.34563583
   8.02636154  0.00000000  8.09463920
  11.18875144  0.00000000  8.09603685
   6.40676427  3.23512150  8.10260023
   9.60698480  3.23512150  8.09795414
   6.40132822  0.00000000 11.25049935
   9.60552181  0.00000000 11.47043345
   6.40426600  3.23512150  3.61324250
   9.60639900  3.23512150  3.61324250
   6.40426600  0.00000000  0.37812100
   9.60639900  0.00000000  0.37812100
   8.00533250  5.23080325  4.85268225
  11.20746550  5.23080325  4.85268225
   8.00533250  1.99568175  1.61756075
  11.20746550  1.99568175  1.61756075
   6.40426600  3.23512150  6.09212200
   9.60639900  3.23512150  6.09212200
   6.40426600  0.00000000  2.85700050
   9.60639900  0.00000000  2.85700050
   8.00533250  1.23943975  4.85268225
  11.20746550  1.23943975  4.85268225
   8.00533250  4.47456125  1.61756075
  11.20746550  4.47456125  1.61756075
   6.40486353  3.23512150 10.09407841
   9.60904195  3.23512150 10.08387284
   6.41291323  0.00000000  6.84279937
   9.60726851  0.00000000  6.84401995
   7.99765131  5.23282850 11.34563207
  11.21626679  5.23374875 11.35554536
   8.00915456  1.99314041  8.09522362
  11.20595762  1.99300570  8.09575065
   6.41431767  3.23512150 12.54118200
   6.40695284  0.00000000  9.30021846
   9.60692498  0.00000000  9.36012582
   7.99765131  1.23741450 11.34563207
  11.21626679  1.23649425 11.35554536
   8.00915456  4.47710259  8.09522362
  11.20595762  4.47723730  8.09575065
   9.59711336  0.00000000 13.26885590
 


--------------------------------------------------------------------------------------------------------


 k-point  1 :   0.0000 0.0000 0.0000  plane waves:   54455
 k-point  2 :   0.3333 0.0000 0.0000  plane waves:   54459
 k-point  3 :   0.0000 0.3333 0.0000  plane waves:   54468
 k-point  4 :   0.3333 0.3333 0.0000  plane waves:   54434

 maximum and minimum number of plane-waves per node :      5497     5417

 maximum number of plane-waves:     54468
 maximum index in each direction: 
   IXMAX=   23   IYMAX=   11   IZMAX=   47
   IXMIN=  -23   IYMIN=  -12   IZMIN=  -47


 real space projection operators:
  total allocation   :      13656.39 KBytes
  max/ min on nodes  :       1370.91       1360.42


 parallel 3D FFT for wavefunctions:
    minimum data exchange during FFTs selected (reduces bandwidth)
 parallel 3D FFT for charge:
    minimum data exchange during FFTs selected (reduces bandwidth)


 total amount of memory used by VASP MPI-rank0   127893. kBytes
=======================================================================

   base      :      30000. kBytes
   nonlr-proj:       5795. kBytes
   fftplans  :       3841. kBytes
   grid      :      10919. kBytes
   one-center:        311. kBytes
   wavefun   :      77027. kBytes
 
     INWAV:  cpu time    0.0000: real time    0.0002
 Broyden mixing: mesh for mixing (old mesh)
   NGX = 47   NGY = 23   NGZ = 95
  (NGX  =140   NGY  = 72   NGZ  =288)
  gives a total of 102695 points

 initial charge density was supplied:
 charge density of overlapping atoms calculated
 number of electron     672.0000000 magnetization      57.6000000
 keeping initial charge density in first step


--------------------------------------------------------------------------------------------------------


 Maximum index for non-local projection operator          276
 Maximum index for augmentation-charges          641 (set IRDMAX)


--------------------------------------------------------------------------------------------------------


 First call to EWALD:  gamma=   0.137
 Maximum number of real-space cells 3x 5x 2
 Maximum number of reciprocal cells 3x 2x 5

    FEWALD:  cpu time    0.0043: real time    0.0043


--------------------------------------- Iteration      1(   1)  ---------------------------------------


    POTLOK:  cpu time    0.0894: real time    0.0961
    SETDIJ:  cpu time    0.0158: real time    0.0180
     EDDAV:  cpu time   12.5113: real time   12.5808
       DOS:  cpu time    0.0025: real time    0.0029
    --------------------------------------------
      LOOP:  cpu time   12.6191: real time   12.6978

 eigenvalue-minimisations  :  6960
 total energy-change (2. order) : 0.7511945E+04  (-0.2998524E+05)
 number of electron     672.0000000 magnetization      57.6000000
 augmentation part      672.0000000 magnetization      57.6000000

 DIPCOR: dipole corrections for dipol
 direction  3 min pos   217,
 dipolmoment           0.000000      0.000000     -0.000001 electrons x Angstroem
 Tr[quadrupol]    -12438.669954

 energy correction for charged system         0.000000 eV
 dipol+quadrupol energy correction           -0.000000 eV
 added-field ion interaction          0.000001 eV  (added to PSCEN)


 Free energy of the ion-electron system (eV)
  ---------------------------------------------------
  alpha Z        PSCENC =      1734.56551861
  Ewald energy   TEWEN  =    230508.83677397
  -Hartree energ DENC   =   -275645.27267608
  -exchange      EXHF   =         0.00000000
  -V(xc)+E(xc)   XCENC  =      1202.23005524
  PAW double counting   =     39861.66969181   -38639.32290733
  entropy T*S    EENTRO =        -0.05546534
  eigenvalues    EBANDS =      2920.42081149
  atomic energy  EATOM  =     45568.87297956
  Solvation  Ediel_sol  =         0.00000000
  ---------------------------------------------------
  free energy    TOTEN  =      7511.94478194 eV

  energy without entropy =     7512.00024727  energy(sigma->0) =     7511.97251461


--------------------------------------------------------------------------------------------------------




--------------------------------------- Iteration      1(   2)  ---------------------------------------


     EDDAV:  cpu time   12.9283: real time   12.9694
       DOS:  cpu time    0.0023: real time    0.0023
    --------------------------------------------
      LOOP:  cpu time   12.9306: real time   12.9717

 eigenvalue-minimisations  :  7272
 total energy-change (2. order) :-0.6966923E+04  (-0.6396001E+04)
 number of electron     672.0000000 magnetization      57.6000000
 augmentation part      672.0000000 magnetization      57.6000000

 DIPCOR: dipole corrections for dipol
 direction  3 min pos   217,
 dipolmoment           0.000000      0.000000     -0.000001 electrons x Angstroem
 Tr[quadrupol]    -12438.669954

 energy correction for charged system         0.000000 eV
 dipol+quadrupol energy correction           -0.000000 eV
 added-field ion interaction          0.000001 eV  (added to PSCEN)


 Free energy of the ion-electron system (eV)
  ---------------------------------------------------
  alpha Z        PSCENC =      1734.56551861
  Ewald energy   TEWEN  =    230508.83677397
  -Hartree energ DENC   =   -275645.27267608
  -exchange      EXHF   =         0.00000000
  -V(xc)+E(xc)   XCENC  =      1202.23005524
  PAW double counting   =     39861.66969181   -38639.32290733
  entropy T*S    EENTRO =        -0.05046901
  eigenvalues    EBANDS =     -4046.50721436
  atomic energy  EATOM  =     45568.87297956
  Solvation  Ediel_sol  =         0.00000000
  ---------------------------------------------------
  free energy    TOTEN  =       545.02175241 eV

  energy without entropy =      545.07222143  energy(sigma->0) =      545.04698692


--------------------------------------------------------------------------------------------------------




--------------------------------------- Iteration      1(   3)  ---------------------------------------


     EDDAV:  cpu time   14.9495: real time   15.0134
       DOS:  cpu time    0.0021: real time    0.0021
    --------------------------------------------
      LOOP:  cpu time   14.9516: real time   15.0155

 eigenvalue-minimisations  :  8752
 total energy-change (2. order) :-0.1210929E+04  (-0.1155893E+04)
 number of electron     672.0000000 magnetization      57.6000000
 augmentation part      672.0000000 magnetization      57.6000000

 DIPCOR: dipole corrections for dipol
 direction  3 min pos   217,
 dipolmoment           0.000000      0.000000     -0.000001 electrons x Angstroem
 Tr[quadrupol]    -12438.669954

 energy correction for charged system         0.000000 eV
 dipol+quadrupol energy correction           -0.000000 eV
 added-field ion interaction          0.000001 eV  (added to PSCEN)


 Free energy of the ion-electron system (eV)
  ---------------------------------------------------
  alpha Z        PSCENC =      1734.56551861
  Ewald energy   TEWEN  =    230508.83677397
  -Hartree energ DENC   =   -275645.27267608
  -exchange      EXHF   =         0.00000000
  -V(xc)+E(xc)   XCENC  =      1202.23005524
  PAW double counting   =     39861.66969181   -38639.32290733
  entropy T*S    EENTRO =        -0.07496180
  eigenvalues    EBANDS =     -5257.41169715
  atomic energy  EATOM  =     45568.87297956
  Solvation  Ediel_sol  =         0.00000000
  ---------------------------------------------------
  free energy    TOTEN  =      -665.90722316 eV

  energy without entropy =     -665.83226136  energy(sigma->0) =     -665.86974226


--------------------------------------------------------------------------------------------------------




--------------------------------------- Iteration      1(   4)  ---------------------------------------


     EDDAV:  cpu time   15.0561: real time   15.0992
       DOS:  cpu time    0.0022: real time    0.0022
    --------------------------------------------
      LOOP:  cpu time   15.0583: real time   15.1014

 eigenvalue-minimisations  :  8816
 total energy-change (2. order) :-0.7173841E+02  (-0.6932759E+02)
 number of electron     672.0000000 magnetization      57.6000000
 augmentation part      672.0000000 magnetization      57.6000000

 DIPCOR: dipole corrections for dipol
 direction  3 min pos   217,
 dipolmoment           0.000000      0.000000     -0.000001 electrons x Angstroem
 Tr[quadrupol]    -12438.669954

 energy correction for charged system         0.000000 eV
 dipol+quadrupol energy correction           -0.000000 eV
 added-field ion interaction          0.000001 eV  (added to PSCEN)


 Free energy of the ion-electron system (eV)
  ---------------------------------------------------
  alpha Z        PSCENC =      1734.56551861
  Ewald energy   TEWEN  =    230508.83677397
  -Hartree energ DENC   =   -275645.27267608
  -exchange      EXHF   =         0.00000000
  -V(xc)+E(xc)   XCENC  =      1202.23005524
  PAW double counting   =     39861.66969181   -38639.32290733
  entropy T*S    EENTRO =        -0.08758371
  eigenvalues    EBANDS =     -5329.13748669
  atomic energy  EATOM  =     45568.87297956
  Solvation  Ediel_sol  =         0.00000000
  ---------------------------------------------------
  free energy    TOTEN  =      -737.64563460 eV

  energy without entropy =     -737.55805090  energy(sigma->0) =     -737.60184275


--------------------------------------------------------------------------------------------------------




--------------------------------------- Iteration      1(   5)  ---------------------------------------


     EDDAV:  cpu time   15.1388: real time   15.1946
       DOS:  cpu time    0.0022: real time    0.0022
    CHARGE:  cpu time    0.3142: real time    0.3156
    MIXING:  cpu time    0.0028: real time    0.0038
    --------------------------------------------
      LOOP:  cpu time   15.4580: real time   15.5162

 eigenvalue-minimisations  :  8896
 total energy-change (2. order) :-0.2326443E+01  (-0.2291299E+01)
 number of electron     672.0000400 magnetization      53.8895963
 augmentation part      118.2436455 magnetization      44.6204320

 DIPCOR: dipole corrections for dipol
 direction  3 min pos   217,
 dipolmoment           0.000000      0.000000     -0.000001 electrons x Angstroem
 Tr[quadrupol]    -12438.669954

 energy correction for charged system         0.000000 eV
 dipol+quadrupol energy correction           -0.000000 eV
 added-field ion interaction          0.000001 eV  (added to PSCEN)


 Broyden mixing:
  rms(total) = 0.17094E+02    rms(broyden)= 0.17093E+02
  rms(prec ) = 0.17305E+02
  weight for this iteration     100.00

 Free energy of the ion-electron system (eV)
  ---------------------------------------------------
  alpha Z        PSCENC =      1734.56551861
  Ewald energy   TEWEN  =    230508.83677397
  -Hartree energ DENC   =   -275645.27267608
  -exchange      EXHF   =         0.00000000
  -V(xc)+E(xc)   XCENC  =      1202.23005524
  PAW double counting   =     39861.66969181   -38639.32290733
  entropy T*S    EENTRO =        -0.08774318
  eigenvalues    EBANDS =     -5331.46376984
  atomic energy  EATOM  =     45568.87297956
  Solvation  Ediel_sol  =         0.00000000
  ---------------------------------------------------
  free energy    TOTEN  =      -739.97207724 eV

  energy without entropy =     -739.88433405  energy(sigma->0) =     -739.92820565


--------------------------------------------------------------------------------------------------------




--------------------------------------- Iteration      1(   6)  ---------------------------------------


    POTLOK:  cpu time    0.0807: real time    0.0818
    SETDIJ:  cpu time    0.0152: real time    0.0152
    EDDIAG:  cpu time    1.7285: real time    1.7347
  RMM-DIIS:  cpu time    4.8075: real time    4.8213
    ORTHCH:  cpu time    0.5368: real time    0.5381
       DOS:  cpu time    0.0022: real time    0.0022
    CHARGE:  cpu time    0.3128: real time    0.3136
    MIXING:  cpu time    0.0029: real time    0.0029
    --------------------------------------------
      LOOP:  cpu time    7.4865: real time    7.5099

 eigenvalue-minimisations  :  6954
 total energy-change (2. order) : 0.1262020E+03  (-0.6803780E+02)
 number of electron     672.0000413 magnetization      50.5724784
 augmentation part      127.0753951 magnetization      38.1101022

 DIPCOR: dipole corrections for dipol
 direction  3 min pos   217,
 dipolmoment           0.000000      0.000000      0.179206 electrons x Angstroem
 Tr[quadrupol]    -12430.305166

 energy correction for charged system         0.000000 eV
 dipol+quadrupol energy correction           -0.001355 eV
 added-field ion interaction         -0.119115 eV  (added to PSCEN)


 Broyden mixing:
  rms(total) = 0.10212E+02    rms(broyden)= 0.10209E+02
  rms(prec ) = 0.10497E+02
  weight for this iteration     100.00

 eigenvalues of (default mixing * dielectric matrix)
  average eigenvalue GAMMA=   1.0204
  1.0204

 Free energy of the ion-electron system (eV)
  ---------------------------------------------------
  alpha Z        PSCENC =      1734.44504825
  Ewald energy   TEWEN  =    230508.83677397
  -Hartree energ DENC   =   -276004.95246125
  -exchange      EXHF   =         0.00000000
  -V(xc)+E(xc)   XCENC  =      1277.96101834
  PAW double counting   =     47633.34290517   -46473.98886543
  entropy T*S    EENTRO =        -0.07329748
  eigenvalues    EBANDS =     -4858.21418601
  atomic energy  EATOM  =     45568.87297956
  Solvation  Ediel_sol  =         0.00000000
  ---------------------------------------------------
  free energy    TOTEN  =      -613.77008487 eV

  energy without entropy =     -613.69678739  energy(sigma->0) =     -613.73343613


--------------------------------------------------------------------------------------------------------




--------------------------------------- Iteration      1(   7)  ---------------------------------------


    POTLOK:  cpu time    0.0804: real time    0.0808
    SETDIJ:  cpu time    0.0152: real time    0.0152
    EDDIAG:  cpu time    1.7371: real time    1.7431
  RMM-DIIS:  cpu time    4.9101: real time    4.9240
    ORTHCH:  cpu time    0.5373: real time    0.5388
       DOS:  cpu time    0.0020: real time    0.0020
    CHARGE:  cpu time    0.3123: real time    0.3131
    MIXING:  cpu time    0.0027: real time    0.0027
    --------------------------------------------
      LOOP:  cpu time    7.5971: real time    7.6197

 eigenvalue-minimisations  :  7156
 total energy-change (2. order) :-0.2238752E+03  (-0.2622099E+02)
 number of electron     672.0000318 magnetization      49.9125206
 augmentation part      120.9237223 magnetization      39.0585471

 DIPCOR: dipole corrections for dipol
 direction  3 min pos   217,
 dipolmoment           0.000000      0.000000     -3.417154 electrons x Angstroem
 Tr[quadrupol]    -12467.066197

 energy correction for charged system         0.000000 eV
 dipol+quadrupol energy correction           -0.492646 eV
 added-field ion interaction          2.271315 eV  (added to PSCEN)


 Broyden mixing:
  rms(total) = 0.23382E+02    rms(broyden)= 0.23381E+02
  rms(prec ) = 0.26193E+02
  weight for this iteration     100.00

 eigenvalues of (default mixing * dielectric matrix)
  average eigenvalue GAMMA=   0.5997
  1.1084  0.0910

 Free energy of the ion-electron system (eV)
  ---------------------------------------------------
  alpha Z        PSCENC =      1736.34418666
  Ewald energy   TEWEN  =    230508.83677397
  -Hartree energ DENC   =   -276676.16981918
  -exchange      EXHF   =         0.00000000
  -V(xc)+E(xc)   XCENC  =      1249.97782531
  PAW double counting   =     53201.17511875   -52050.38043423
  entropy T*S    EENTRO =        -0.05406246
  eigenvalues    EBANDS =     -4376.24788317
  atomic energy  EATOM  =     45568.87297956
  Solvation  Ediel_sol  =         0.00000000
  ---------------------------------------------------
  free energy    TOTEN  =      -837.64531478 eV

  energy without entropy =     -837.59125232  energy(sigma->0) =     -837.61828355


--------------------------------------------------------------------------------------------------------




--------------------------------------- Iteration      1(   8)  ---------------------------------------


    POTLOK:  cpu time    0.0813: real time    0.0889
    SETDIJ:  cpu time    0.0152: real time    0.0152
    EDDIAG:  cpu time    1.7293: real time    1.7337
  RMM-DIIS:  cpu time    4.8244: real time    4.8372
    ORTHCH:  cpu time    0.5372: real time    0.5386
       DOS:  cpu time    0.0022: real time    0.0022
    CHARGE:  cpu time    0.3131: real time    0.3138
    MIXING:  cpu time    0.0027: real time    0.0028
    --------------------------------------------
      LOOP:  cpu time    7.5053: real time    7.5325

 eigenvalue-minimisations  :  6989
 total energy-change (2. order) : 0.1546674E+03  (-0.3265738E+01)
 number of electron     672.0000399 magnetization      47.2691581
 augmentation part      121.8956116 magnetization      37.1261024

 DIPCOR: dipole corrections for dipol
 direction  3 min pos   217,
 dipolmoment           0.000000      0.000000      0.583334 electrons x Angstroem
 Tr[quadrupol]    -12461.855012

 energy correction for charged system         0.000000 eV
 dipol+quadrupol energy correction           -0.014356 eV
 added-field ion interaction         -0.387731 eV  (added to PSCEN)


 Broyden mixing:
  rms(total) = 0.10003E+02    rms(broyden)= 0.10001E+02
  rms(prec ) = 0.11313E+02
  weight for this iteration     100.00

 eigenvalues of (default mixing * dielectric matrix)
  average eigenvalue GAMMA=   0.6766
  1.5132  0.4114  0.1051

 Free energy of the ion-electron system (eV)
  ---------------------------------------------------
  alpha Z        PSCENC =      1734.16343076
  Ewald energy   TEWEN  =    230508.83677397
  -Hartree energ DENC   =   -276534.92217494
  -exchange      EXHF   =         0.00000000
  -V(xc)+E(xc)   XCENC  =      1250.82538595
  PAW double counting   =     54330.64127102   -53182.88926636
  entropy T*S    EENTRO =        -0.05645765
  eigenvalues    EBANDS =     -4358.44990295
  atomic energy  EATOM  =     45568.87297956
  Solvation  Ediel_sol  =         0.00000000
  ---------------------------------------------------
  free energy    TOTEN  =      -682.97796064 eV

  energy without entropy =     -682.92150299  energy(sigma->0) =     -682.94973182


--------------------------------------------------------------------------------------------------------




--------------------------------------- Iteration      1(   9)  ---------------------------------------


    POTLOK:  cpu time    0.0800: real time    0.0806
    SETDIJ:  cpu time    0.0152: real time    0.0152
    EDDIAG:  cpu time    1.7284: real time    1.7342
  RMM-DIIS:  cpu time    4.8419: real time    4.8546
    ORTHCH:  cpu time    0.5375: real time    0.5390
       DOS:  cpu time    0.0021: real time    0.0021
    CHARGE:  cpu time    0.3119: real time    0.3128
    MIXING:  cpu time    0.0029: real time    0.0029
    --------------------------------------------
      LOOP:  cpu time    7.5199: real time    7.5414

 eigenvalue-minimisations  :  7008
 total energy-change (2. order) :-0.4663450E+03  (-0.1325022E+02)
 number of electron     672.0000262 magnetization      46.2790460
 augmentation part      127.6633495 magnetization      34.8590301

 DIPCOR: dipole corrections for dipol
 direction  3 min pos   217,
 dipolmoment           0.000000      0.000000     -5.946883 electrons x Angstroem
 Tr[quadrupol]    -12434.017224

 energy correction for charged system         0.000000 eV
 dipol+quadrupol energy correction           -1.492054 eV
 added-field ion interaction          3.952776 eV  (added to PSCEN)


 Broyden mixing:
  rms(total) = 0.31233E+02    rms(broyden)= 0.31231E+02
  rms(prec ) = 0.37422E+02
  weight for this iteration     100.00

 eigenvalues of (default mixing * dielectric matrix)
  average eigenvalue GAMMA=   0.5504
  1.6183  0.4270  0.1189  0.0375

 Free energy of the ion-electron system (eV)
  ---------------------------------------------------
  alpha Z        PSCENC =      1737.02623944
  Ewald energy   TEWEN  =    230508.83677397
  -Hartree energ DENC   =   -275837.57870052
  -exchange      EXHF   =         0.00000000
  -V(xc)+E(xc)   XCENC  =      1254.77178739
  PAW double counting   =     57600.68179900   -56466.47477086
  entropy T*S    EENTRO =        -0.09422303
  eigenvalues    EBANDS =     -5515.36483009
  atomic energy  EATOM  =     45568.87297956
  Solvation  Ediel_sol  =         0.00000000
  ---------------------------------------------------
  free energy    TOTEN  =     -1149.32294513 eV

  energy without entropy =    -1149.22872210  energy(sigma->0) =    -1149.27583361


--------------------------------------------------------------------------------------------------------




--------------------------------------- Iteration      1(  10)  ---------------------------------------


    POTLOK:  cpu time    0.0807: real time    0.0811
    SETDIJ:  cpu time    0.0151: real time    0.0152
    EDDIAG:  cpu time    1.7274: real time    1.7318
  RMM-DIIS:  cpu time    5.0315: real time    5.0460
    ORTHCH:  cpu time    0.5352: real time    0.5365
       DOS:  cpu time    0.0021: real time    0.0021
    CHARGE:  cpu time    0.3120: real time    0.3130
    MIXING:  cpu time    0.0032: real time    0.0051
    --------------------------------------------
      LOOP:  cpu time    7.7074: real time    7.7310

 eigenvalue-minimisations  :  7290
 total energy-change (2. order) : 0.2595982E+03  (-0.2031639E+01)
 number of electron     672.0000323 magnetization      45.3971183
 augmentation part      122.4851369 magnetization      38.3532041

 DIPCOR: dipole corrections for dipol
 direction  3 min pos   217,
 dipolmoment           0.000000      0.000000     -3.802561 electrons x Angstroem
 Tr[quadrupol]    -12436.395533

 energy correction for charged system         0.000000 eV
 dipol+quadrupol energy correction           -0.610040 eV
 added-field ion interaction          2.527488 eV  (added to PSCEN)


 Broyden mixing:
  rms(total) = 0.22704E+02    rms(broyden)= 0.22704E+02
  rms(prec ) = 0.26659E+02
  weight for this iteration     100.00

 eigenvalues of (default mixing * dielectric matrix)
  average eigenvalue GAMMA=   0.5156
  1.7006  0.4052  0.1965  0.1965  0.0790

 Free energy of the ion-electron system (eV)
  ---------------------------------------------------
  alpha Z        PSCENC =      1736.48296531
  Ewald energy   TEWEN  =    230508.83677397
  -Hartree energ DENC   =   -275884.76736510
  -exchange      EXHF   =         0.00000000
  -V(xc)+E(xc)   XCENC  =      1255.51254652
  PAW double counting   =     59137.68595270   -58005.81056074
  entropy T*S    EENTRO =        -0.08042058
  eigenvalues    EBANDS =     -5206.45758507
  atomic energy  EATOM  =     45568.87297956
  Solvation  Ediel_sol  =         0.00000000
  ---------------------------------------------------
  free energy    TOTEN  =      -889.72471342 eV

  energy without entropy =     -889.64429284  energy(sigma->0) =     -889.68450313


--------------------------------------------------------------------------------------------------------




--------------------------------------- Iteration      1(  11)  ---------------------------------------


    POTLOK:  cpu time    0.0806: real time    0.0809
    SETDIJ:  cpu time    0.0151: real time    0.0151
    EDDIAG:  cpu time    1.7246: real time    1.7291
  RMM-DIIS:  cpu time    4.7942: real time    4.8078
    ORTHCH:  cpu time    0.5371: real time    0.5386
       DOS:  cpu time    0.0021: real time    0.0021
    CHARGE:  cpu time    0.3109: real time    0.3118
    MIXING:  cpu time    0.0035: real time    0.0035
    --------------------------------------------
      LOOP:  cpu time    7.4680: real time    7.4890

 eigenvalue-minimisations  :  6921
 total energy-change (2. order) : 0.2209813E+02  (-0.2969332E+01)
 number of electron     672.0000314 magnetization      43.4485076
 augmentation part      128.8315901 magnetization      35.4367587

 DIPCOR: dipole corrections for dipol
 direction  3 min pos   217,
 dipolmoment           0.000000      0.000000     -4.223355 electrons x Angstroem
 Tr[quadrupol]    -12428.922498

 energy correction for charged system         0.000000 eV
 dipol+quadrupol energy correction           -0.752525 eV
 added-field ion interaction          2.807181 eV  (added to PSCEN)


 Broyden mixing:
  rms(total) = 0.20155E+02    rms(broyden)= 0.20154E+02
  rms(prec ) = 0.25824E+02
  weight for this iteration     100.00

 eigenvalues of (default mixing * dielectric matrix)
  average eigenvalue GAMMA=   0.5502
  1.9126  0.5291  0.3138  0.3138  0.1576  0.0742

 Free energy of the ion-electron system (eV)
  ---------------------------------------------------
  alpha Z        PSCENC =      1736.62017334
  Ewald energy   TEWEN  =    230508.83677397
  -Hartree energ DENC   =   -275742.67718049
  -exchange      EXHF   =         0.00000000
  -V(xc)+E(xc)   XCENC  =      1262.49795131
  PAW double counting   =     59565.74137117   -58439.19340967
  entropy T*S    EENTRO =        -0.06736107
  eigenvalues    EBANDS =     -5328.25788318
  atomic energy  EATOM  =     45568.87297956
  Solvation  Ediel_sol  =         0.00000000
  ---------------------------------------------------
  free energy    TOTEN  =      -867.62658505 eV

  energy without entropy =     -867.55922398  energy(sigma->0) =     -867.59290451


--------------------------------------------------------------------------------------------------------




--------------------------------------- Iteration      1(  12)  ---------------------------------------


    POTLOK:  cpu time    0.0802: real time    0.0816
    SETDIJ:  cpu time    0.0151: real time    0.0151
    EDDIAG:  cpu time    1.7248: real time    1.7292
  RMM-DIIS:  cpu time    4.7725: real time    4.7851
    ORTHCH:  cpu time    0.5378: real time    0.5392
       DOS:  cpu time    0.0021: real time    0.0021
    CHARGE:  cpu time    0.3025: real time    0.3185
    MIXING:  cpu time    0.0035: real time    0.0035
    --------------------------------------------
      LOOP:  cpu time    7.4385: real time    7.4743

 eigenvalue-minimisations  :  6927
 total energy-change (2. order) : 0.2093256E+03  (-0.8536943E+01)
 number of electron     672.0000449 magnetization      40.5555072
 augmentation part      123.1547239 magnetization      35.3675202

 DIPCOR: dipole corrections for dipol
 direction  3 min pos   217,
 dipolmoment           0.000000      0.000000      1.047592 electrons x Angstroem
 Tr[quadrupol]    -12449.615166

 energy correction for charged system         0.000000 eV
 dipol+quadrupol energy correction           -0.046301 eV
 added-field ion interaction         -0.696314 eV  (added to PSCEN)


 Broyden mixing:
  rms(total) = 0.96083E+01    rms(broyden)= 0.96046E+01
  rms(prec ) = 0.12440E+02
  weight for this iteration     100.00

 eigenvalues of (default mixing * dielectric matrix)
  average eigenvalue GAMMA=   0.5891
  2.4121  0.5623  0.3129  0.3129  0.2906  0.1588  0.0739

 Free energy of the ion-electron system (eV)
  ---------------------------------------------------
  alpha Z        PSCENC =      1733.82290307
  Ewald energy   TEWEN  =    230508.83677397
  -Hartree energ DENC   =   -276280.22620365
  -exchange      EXHF   =         0.00000000
  -V(xc)+E(xc)   XCENC  =      1265.68610234
  PAW double counting   =     60536.19703454   -59414.41175902
  entropy T*S    EENTRO =        -0.05329904
  eigenvalues    EBANDS =     -4577.02547691
  atomic energy  EATOM  =     45568.87297956
  Solvation  Ediel_sol  =         0.00000000
  ---------------------------------------------------
  free energy    TOTEN  =      -658.30094513 eV

  energy without entropy =     -658.24764609  energy(sigma->0) =     -658.27429561


--------------------------------------------------------------------------------------------------------




--------------------------------------- Iteration      1(  13)  ---------------------------------------


    POTLOK:  cpu time    0.0800: real time    0.0805
    SETDIJ:  cpu time    0.0152: real time    0.0153
    EDDIAG:  cpu time    1.7233: real time    1.7278
  RMM-DIIS:  cpu time    4.7973: real time    4.8099
    ORTHCH:  cpu time    0.5366: real time    0.5381
       DOS:  cpu time    0.0021: real time    0.0021
    CHARGE:  cpu time    0.3122: real time    0.3130
    MIXING:  cpu time    0.0037: real time    0.0037
    --------------------------------------------
      LOOP:  cpu time    7.4704: real time    7.4904

 eigenvalue-minimisations  :  6940
 total energy-change (2. order) : 0.4012332E+02  (-0.3325579E+01)
 number of electron     672.0000394 magnetization      39.7446802
 augmentation part      123.2987586 magnetization      32.8269999

 DIPCOR: dipole corrections for dipol
 direction  3 min pos   217,
 dipolmoment           0.000000      0.000000     -1.215044 electrons x Angstroem
 Tr[quadrupol]    -12460.419341

 energy correction for charged system         0.000000 eV
 dipol+quadrupol energy correction           -0.062286 eV
 added-field ion interaction          0.807616 eV  (added to PSCEN)


 Broyden mixing:
  rms(total) = 0.62924E+01    rms(broyden)= 0.62905E+01
  rms(prec ) = 0.70236E+01
  weight for this iteration     100.00

 eigenvalues of (default mixing * dielectric matrix)
  average eigenvalue GAMMA=   0.5543
  2.2383  0.7177  0.4548  0.2878  0.2878  0.1871  0.1871  0.0739

 Free energy of the ion-electron system (eV)
  ---------------------------------------------------
  alpha Z        PSCENC =      1735.31084738
  Ewald energy   TEWEN  =    230508.83677397
  -Hartree energ DENC   =   -276578.08746942
  -exchange      EXHF   =         0.00000000
  -V(xc)+E(xc)   XCENC  =      1269.24059059
  PAW double counting   =     63174.35562745   -62064.28125345
  entropy T*S    EENTRO =        -0.03863501
  eigenvalues    EBANDS =     -4232.38708937
  atomic energy  EATOM  =     45568.87297956
  Solvation  Ediel_sol  =         0.00000000
  ---------------------------------------------------
  free energy    TOTEN  =      -618.17762830 eV

  energy without entropy =     -618.13899328  energy(sigma->0) =     -618.15831079


--------------------------------------------------------------------------------------------------------




--------------------------------------- Iteration      1(  14)  ---------------------------------------


    POTLOK:  cpu time    0.0806: real time    0.0810
    SETDIJ:  cpu time    0.0151: real time    0.0151
    EDDIAG:  cpu time    1.7223: real time    1.7267
  RMM-DIIS:  cpu time    4.7914: real time    4.8141
    ORTHCH:  cpu time    0.5375: real time    0.5388
       DOS:  cpu time    0.0022: real time    0.0022
[...]
   -.329E+00 0.363E+01 0.165E+04   0.334E+00 -.176E+01 -.165E+04   0.492E-01 -.183E+01 -.548E+00   -.360E-02 0.210E-02 0.514E-02
   0.159E+02 -.712E-12 -.118E+04   -.150E+02 -.669E-13 0.118E+04   -.955E+00 0.000E+00 -.147E+01   -.742E-02 -.101E-14 0.348E-01
   0.258E+00 -.387E-12 -.117E+04   -.293E+00 -.177E-11 0.118E+04   0.277E-01 0.000E+00 -.517E+00   0.340E-02 -.198E-12 0.337E-01
   0.697E+01 -.106E-11 -.998E+02   -.796E+01 -.360E-14 0.981E+02   0.101E+01 0.000E+00 0.160E+01   -.312E-02 -.346E-13 0.503E-01
   0.141E+00 0.707E-12 -.975E+02   -.135E+00 0.344E-13 0.958E+02   -.478E-02 0.000E+00 0.164E+01   -.340E-03 0.256E-13 0.461E-01
   0.260E+01 -.238E+01 -.167E+04   -.286E+01 0.633E+00 0.167E+04   0.234E+00 0.175E+01 -.486E+01   -.436E-03 -.598E-02 0.109E-01
   -.233E+01 -.245E+01 -.167E+04   0.255E+01 0.707E+00 0.167E+04   -.211E+00 0.176E+01 -.487E+01   0.829E-02 -.701E-02 0.127E-01
   0.185E+01 0.328E+02 -.546E+03   -.172E+01 -.344E+02 0.546E+03   -.140E+00 0.161E+01 0.329E+00   -.144E-02 0.106E-01 0.437E-01
   -.167E+01 0.328E+02 -.546E+03   0.154E+01 -.345E+02 0.545E+03   0.142E+00 0.161E+01 0.381E+00   0.237E-02 0.102E-01 0.465E-01
   0.189E+02 0.957E-12 -.201E+04   -.188E+02 -.426E-13 0.204E+04   -.690E-01 0.000E+00 -.281E+02   0.317E-02 -.170E-13 -.586E-02
   -.429E-01 -.202E-12 -.202E+04   0.584E-01 -.208E-11 0.205E+04   -.148E-01 0.000E+00 -.280E+02   0.423E-02 -.173E-12 -.167E-01
   0.261E+01 0.316E-12 -.100E+04   -.260E+01 0.674E-13 0.997E+03   -.290E-01 0.000E+00 0.314E+01   0.203E-02 0.223E-13 0.499E-01
   -.346E-01 0.128E-11 -.999E+03   0.599E-01 -.191E-10 0.996E+03   -.177E-01 0.000E+00 0.258E+01   0.231E-02 0.171E-12 0.427E-01
   0.260E+01 0.238E+01 -.167E+04   -.286E+01 -.633E+00 0.167E+04   0.234E+00 -.175E+01 -.486E+01   -.436E-03 0.598E-02 0.109E-01
   -.233E+01 0.245E+01 -.167E+04   0.255E+01 -.707E+00 0.167E+04   -.211E+00 -.176E+01 -.487E+01   0.829E-02 0.701E-02 0.127E-01
   0.185E+01 -.328E+02 -.546E+03   -.172E+01 0.344E+02 0.546E+03   -.140E+00 -.161E+01 0.329E+00   -.144E-02 -.106E-01 0.437E-01
   -.167E+01 -.328E+02 -.546E+03   0.154E+01 0.345E+02 0.545E+03   0.142E+00 -.161E+01 0.381E+00   0.237E-02 -.102E-01 0.465E-01
   -.288E+01 0.714E-12 0.818E+03   0.296E+01 -.928E-13 -.817E+03   -.185E-01 0.000E+00 -.670E+00   -.180E-02 0.813E-12 0.661E-01
   0.274E+01 -.739E-12 0.817E+03   -.282E+01 -.117E-12 -.817E+03   0.187E-01 0.000E+00 -.671E+00   0.480E-02 0.472E-12 0.651E-01
   -.561E+00 0.560E-13 0.242E+04   0.534E+00 -.898E-13 -.242E+04   -.757E-02 0.000E+00 0.146E+01   -.255E-02 -.906E-12 0.730E-02
   0.526E+00 0.143E-12 0.242E+04   -.502E+00 -.578E-13 -.242E+04   0.760E-02 0.000E+00 0.146E+01   0.505E-02 -.359E-12 0.806E-02
   -.724E+00 -.113E-11 0.257E+04   0.734E+00 0.339E-14 -.256E+04   -.168E-01 0.000E+00 -.262E+01   -.540E-02 0.783E-12 0.732E-02
   -.236E-01 -.582E-12 0.257E+04   0.217E-01 0.708E-13 -.256E+04   -.140E-04 0.000E+00 -.241E+01   0.189E-02 0.716E-12 0.750E-02
   -.328E+01 0.624E-12 0.817E+03   0.330E+01 0.232E-13 -.817E+03   0.991E-02 0.000E+00 0.728E-01   -.108E-02 -.551E-12 0.610E-01
   -.784E-01 0.932E-12 0.813E+03   0.776E-01 -.160E-13 -.813E+03   0.171E-02 0.000E+00 0.184E+00   0.192E-02 -.630E-12 0.623E-01
   -.122E+03 0.287E-11 -.247E+04   0.120E+03 -.601E-12 0.247E+04   0.210E+01 0.000E+00 -.169E+00   -.396E-02 -.429E-13 0.123E-01
   0.121E+03 0.909E-13 -.247E+04   -.119E+03 -.103E-12 0.247E+04   -.210E+01 0.000E+00 -.173E+00   -.234E-03 0.119E-12 0.136E-01
   -.827E+01 0.854E-13 -.836E+03   0.872E+01 0.873E-13 0.836E+03   -.449E+00 0.000E+00 0.613E-01   0.197E-03 -.465E-12 0.683E-01
   0.811E+01 0.824E-13 -.837E+03   -.856E+01 -.855E-13 0.837E+03   0.440E+00 0.000E+00 0.603E-01   -.233E-02 -.187E-12 0.632E-01
   -.112E+02 -.700E-12 -.821E+03   0.111E+02 -.396E-12 0.821E+03   0.160E+00 0.000E+00 -.179E+00   -.794E-02 0.286E-12 0.772E-01
   -.168E+00 0.405E-11 -.846E+03   0.168E+00 -.182E-15 0.846E+03   -.394E-02 0.000E+00 -.131E+00   -.729E-03 0.463E-12 0.653E-01
   0.106E+02 -.174E-11 -.249E+04   -.107E+02 -.203E-11 0.249E+04   0.111E+00 0.000E+00 0.358E+01   0.454E-02 0.295E-12 0.195E-01
   -.403E+00 0.203E-11 -.239E+04   0.404E+00 0.110E-12 0.240E+04   0.239E-02 0.000E+00 -.227E+01   -.542E-02 -.771E-13 0.215E-01
   -.135E+01 -.251E-11 0.101E+04   0.137E+01 -.271E-13 -.101E+04   -.343E-02 0.000E+00 -.170E+01   -.286E-02 0.602E-12 0.359E-01
   -.385E-01 -.791E-12 0.101E+04   0.363E-01 -.172E-13 -.101E+04   0.841E-03 0.000E+00 -.114E+01   0.181E-02 0.637E-12 0.386E-01
   -.235E+00 0.246E-12 0.202E+04   0.230E+00 -.106E-14 -.205E+04   0.110E-01 0.000E+00 0.277E+02   -.211E-02 -.459E-12 -.164E-01
   -.926E-02 0.878E-12 0.202E+04   0.819E-02 0.104E-13 -.205E+04   0.137E-03 0.000E+00 0.277E+02   0.100E-02 -.376E-12 -.172E-01
   -.188E+01 0.348E+02 0.543E+03   0.186E+01 -.365E+02 -.543E+03   -.403E-01 0.168E+01 0.100E-01   -.142E-02 0.142E-02 0.426E-01
   0.176E+01 0.348E+02 0.543E+03   -.175E+01 -.365E+02 -.543E+03   0.401E-01 0.168E+01 0.955E-02   0.350E-02 0.101E-02 0.420E-01
   -.324E+00 -.360E+01 0.165E+04   0.358E+00 0.176E+01 -.165E+04   -.690E-01 0.179E+01 -.512E+00   -.280E-02 -.482E-02 0.496E-02
   0.301E+00 -.360E+01 0.165E+04   -.337E+00 0.176E+01 -.165E+04   0.690E-01 0.179E+01 -.513E+00   0.483E-02 -.465E-02 0.547E-02
   -.477E+01 0.817E-12 0.916E+02   0.482E+01 -.123E-13 -.890E+02   -.735E-01 0.000E+00 -.227E+01   -.275E-02 0.303E-12 0.539E-01
   -.103E+00 -.146E-11 0.850E+02   0.977E-01 -.328E-14 -.818E+02   0.708E-02 0.000E+00 -.273E+01   0.123E-02 0.480E-12 0.566E-01
   -.939E+00 0.496E-12 0.118E+04   0.926E+00 0.206E-13 -.118E+04   0.129E-01 0.000E+00 0.227E+00   -.204E-02 -.628E-12 0.247E-01
   -.278E-01 0.228E-11 0.118E+04   0.267E-01 0.181E-14 -.118E+04   -.108E-02 0.000E+00 0.457E+00   0.142E-02 -.551E-12 0.247E-01
   -.188E+01 -.348E+02 0.543E+03   0.186E+01 0.365E+02 -.543E+03   -.403E-01 -.168E+01 0.100E-01   -.142E-02 -.142E-02 0.426E-01
   0.176E+01 -.348E+02 0.543E+03   -.175E+01 0.365E+02 -.543E+03   0.401E-01 -.168E+01 0.955E-02   0.350E-02 -.101E-02 0.420E-01
   -.324E+00 0.360E+01 0.165E+04   0.358E+00 -.176E+01 -.165E+04   -.690E-01 -.179E+01 -.512E+00   -.280E-02 0.482E-02 0.496E-02
   0.301E+00 0.360E+01 0.165E+04   -.337E+00 -.176E+01 -.165E+04   0.690E-01 -.179E+01 -.513E+00   0.483E-02 0.465E-02 0.547E-02
   -.156E+02 -.363E-11 -.118E+04   0.147E+02 -.183E-11 0.118E+04   0.984E+00 0.000E+00 -.145E+01   0.461E-02 -.127E-12 0.399E-01
   -.321E+00 -.299E-11 -.124E+04   0.357E+00 -.408E-13 0.124E+04   -.385E-01 0.000E+00 0.108E+01   -.503E-02 0.127E-12 0.455E-01
   -.706E+01 0.264E-13 -.996E+02   0.806E+01 0.714E-13 0.980E+02   -.101E+01 0.000E+00 0.157E+01   0.187E-02 -.184E-12 0.531E-01
   -.166E+00 0.145E-11 -.102E+03   0.182E+00 0.285E-13 0.990E+02   -.147E-01 0.000E+00 0.290E+01   0.411E-03 -.429E-12 0.561E-01
   -.158E+01 0.438E+02 -.164E+04   0.752E+00 -.460E+02 0.164E+04   0.837E+00 0.222E+01 -.231E+01   -.348E-02 0.291E-02 0.160E-01
   0.132E+01 0.440E+02 -.164E+04   -.475E+00 -.462E+02 0.164E+04   -.829E+00 0.223E+01 -.236E+01   -.315E-02 0.916E-03 0.135E-01
   -.602E+01 0.309E+02 -.562E+03   0.608E+01 -.327E+02 0.562E+03   -.699E-01 0.171E+01 -.484E+00   0.302E-02 0.215E-03 0.502E-01
   0.585E+01 0.310E+02 -.562E+03   -.591E+01 -.327E+02 0.563E+03   0.482E-01 0.171E+01 -.522E+00   -.413E-02 0.182E-02 0.469E-01
   -.190E+02 0.149E-11 -.201E+04   0.190E+02 -.206E-11 0.204E+04   0.189E-01 0.000E+00 -.282E+02   -.585E-02 -.240E-12 -.868E-02
   -.267E+01 -.170E-11 -.100E+04   0.271E+01 0.271E-12 0.996E+03   -.234E-01 0.000E+00 0.314E+01   -.202E-02 0.631E-13 0.583E-01
   -.165E+00 0.134E-11 -.103E+04   0.166E+00 0.606E-13 0.104E+04   0.113E-02 0.000E+00 -.816E+01   -.153E-02 -.168E-12 0.499E-01
   -.158E+01 -.438E+02 -.164E+04   0.752E+00 0.460E+02 0.164E+04   0.837E+00 -.222E+01 -.231E+01   -.348E-02 -.291E-02 0.160E-01
   0.132E+01 -.440E+02 -.164E+04   -.475E+00 0.462E+02 0.164E+04   -.829E+00 -.223E+01 -.236E+01   -.315E-02 -.916E-03 0.135E-01
   -.602E+01 -.309E+02 -.562E+03   0.608E+01 0.327E+02 0.562E+03   -.699E-01 -.171E+01 -.484E+00   0.302E-02 -.215E-03 0.502E-01
   0.585E+01 -.310E+02 -.562E+03   -.591E+01 0.327E+02 0.563E+03   0.482E-01 -.171E+01 -.522E+00   -.413E-02 -.182E-02 0.469E-01
   0.184E+00 -.193E-12 -.201E+04   -.249E+00 0.240E-13 0.205E+04   0.699E-01 0.000E+00 -.308E+02   -.595E-03 0.128E-12 -.794E-02
 -----------------------------------------------------------------------------------------------
   0.272E-02 0.615E-10 0.455E+02   0.356E-13 0.524E-13 0.318E-11   -.550E-01 -.666E-15 -.484E+02   0.197E-02 -.126E-12 0.304E+01
 
 
 POSITION                                       TOTAL-FORCE (eV/Angst)
 -----------------------------------------------------------------------------------
      1.60107      3.23512      4.85268         0.004361      0.000000     -0.296163
      4.80320      3.23512      4.85268        -0.004835      0.000000     -0.295930
      1.60107      0.00000      1.61756        -0.024300      0.000000     -0.937779
      4.80320      0.00000      1.61756         0.025881      0.000000     -0.937961
      0.00000      3.23512      1.61756         0.012713      0.000000      1.609260
      3.20213      3.23512      1.61756         0.000464      0.000000      1.642636
      0.00000      0.00000      4.85268        -0.034580      0.000000     -0.244320
      3.20213      0.00000      4.85268         0.000297      0.000000     -0.383343
      1.60516      3.23512     11.35825        -0.005381      0.000000      0.006128
      4.79971      3.23512     11.35800         0.002329      0.000000      0.011776
      1.59765      0.00000      8.07405        -0.011363      0.000000     -0.000096
      4.80744      0.00000      8.07365        -0.002054      0.000000     -0.004451
     -0.00394      3.23512      8.09650         0.011336      0.000000      0.033096
      3.20288      3.23512      8.09406        -0.008126      0.000000      0.008198
     -0.00732      0.00000     11.26598        -0.005748      0.000000      0.005031
      3.20205      0.00000     11.26147        -0.002212      0.000000     -0.004841
      0.00000      3.23512      3.61324        -0.014172      0.000000     -0.165265
      3.20213      3.23512      3.61324         0.000902      0.000000     -0.188431
      0.00000      0.00000      0.37812        -0.003411      0.000000      0.793023
      3.20213      0.00000      0.37812         0.000353      0.000000      0.795761
      1.60107      5.23080      4.85268        -0.063279     -0.023039     -0.029713
      4.80320      5.23080      4.85268         0.064365     -0.023138     -0.030256
      1.60107      1.99568      1.61756        -0.049491     -0.046929     -0.687240
      4.80320      1.99568      1.61756         0.050548     -0.046884     -0.687212
      0.00000      3.23512      6.09212         0.038528      0.000000      0.334345
      3.20213      3.23512      6.09212         0.002001      0.000000      0.367327
      0.00000      0.00000      2.85700         0.002749      0.000000      0.202359
      3.20213      0.00000      2.85700         0.000451      0.000000      0.261030
      1.60107      1.23944      4.85268        -0.063279      0.023039     -0.029713
      4.80320      1.23944      4.85268         0.064365      0.023138     -0.030256
      1.60107      4.47456      1.61756        -0.049491      0.046929     -0.687240
      4.80320      4.47456      1.61756         0.050548      0.046884     -0.687212
      0.04681      3.23512     10.06143        -0.015222      0.000000      0.005462
      3.20320      3.23512     10.08708        -0.004044      0.000000     -0.017676
     12.79783      0.00000      6.84623         0.016269      0.000000     -0.013613
      3.20238      0.00000      6.83668         0.001033      0.000000      0.005913
      1.60649      5.24304     11.40731        -0.018158     -0.002713      0.008381
      4.79784      5.24282     11.40725         0.014344      0.009106      0.003824
      1.59949      1.99419      8.07865        -0.005574      0.008402      0.001210
      4.80591      1.99419      8.07748         0.016456      0.006618      0.007090
     12.79862      3.23512     12.53133         0.015846      0.000000      0.011814
      3.20208      3.23512     12.53555         0.005405      0.000000     -0.030569
     12.80813      0.00000      9.31083        -0.010682      0.000000      0.016601
      3.20213      0.00000      9.30378         0.010368      0.000000     -0.010464
      1.60649      1.22720     11.40731        -0.018158      0.002713      0.008381
      4.79784      1.22742     11.40725         0.014344     -0.009106      0.003824
      1.59949      4.47605      8.07865        -0.005574     -0.008402      0.001210
      4.80591      4.47605      8.07748         0.016456     -0.006618      0.007090
      8.00533      3.23512      4.85268         0.055907      0.000000     -0.301402
     11.20747      3.23512      4.85268        -0.056381      0.000000     -0.302122
      8.00533      0.00000      1.61756        -0.036655      0.000000     -0.931994
     11.20747      0.00000      1.61756         0.037533      0.000000     -0.931831
      6.40427      3.23512      1.61756        -0.011774      0.000000      1.608990
      9.60640      3.23512      1.61756         0.000488      0.000000      1.479116
      6.40427      0.00000      4.85268         0.036077      0.000000     -0.253737
      9.60640      0.00000      4.85268         0.003350      0.000000     -0.228587
      7.99125      3.23512     11.34066         0.014073      0.000000      0.027720
     11.22210      3.23512     11.34255        -0.026816      0.000000      0.026802
      8.02458      0.00000      8.10141         0.006492      0.000000      0.011181
     11.18913      0.00000      8.10210        -0.010042      0.000000      0.009584
      6.40915      3.23512      8.09645        -0.014068      0.000000      0.018838
      9.60693      3.23512      8.11410        -0.003784      0.000000      0.021573
      6.41068      0.00000     11.26492        -0.001081      0.000000     -0.000132
      9.60540      0.00000     11.48908        -0.001202      0.000000     -0.000896
      6.40427      3.23512      3.61324         0.016241      0.000000     -0.165047
      9.60640      3.23512      3.61324         0.001014      0.000000     -0.035110
      6.40427      0.00000      0.37812         0.004310      0.000000      0.792903
      9.60640      0.00000      0.37812         0.000592      0.000000      0.797976
      8.00533      5.23080      4.85268        -0.057509     -0.033977     -0.035112
     11.20747      5.23080      4.85268         0.059076     -0.034039     -0.035003
      8.00533      1.99568      1.61756        -0.037370     -0.053558     -0.684933
     11.20747      1.99568      1.61756         0.038489     -0.053541     -0.684956
      6.40427      3.23512      6.09212        -0.032257      0.000000      0.332285
      9.60640      3.23512      6.09212         0.003245      0.000000      0.526150
      6.40427      0.00000      2.85700        -0.002008      0.000000      0.201525
      9.60640      0.00000      2.85700        -0.000230      0.000000      0.298741
      8.00533      1.23944      4.85268        -0.057509      0.033977     -0.035112
     11.20747      1.23944      4.85268         0.059076      0.034039     -0.035003
      8.00533      4.47456      1.61756        -0.037370      0.053558     -0.684933
     11.20747      4.47456      1.61756         0.038489      0.053541     -0.684956
      6.35814      3.23512     10.06133         0.001853      0.000000      0.000031
      9.60683      3.23512     10.13040        -0.006867      0.000000      0.048173
      6.41539      0.00000      6.84537        -0.001317      0.000000     -0.002802
      9.60697      0.00000      6.84849         0.002842      0.000000      0.001532
      8.00008      5.22596     11.39732         0.003726      0.010540      0.000433
     11.21081      5.22655     11.39991         0.010887      0.005257      0.000703
      8.00784      1.99343      8.11297        -0.002313     -0.004860      0.003507
     11.20589      1.99356      8.11381        -0.013157     -0.010430     -0.006315
      6.41484      3.23512     12.52954        -0.026241      0.000000      0.016713
      6.40484      0.00000      9.30967         0.013899      0.000000      0.019035
      9.60671      0.00000      9.37303         0.001041      0.000000      0.038003
      8.00008      1.24428     11.39732         0.003726     -0.010540      0.000433
     11.21081      1.24370     11.39991         0.010887     -0.005257      0.000703
      8.00784      4.47681      8.11297        -0.002313      0.004860      0.003507
     11.20589      4.47669      8.11381        -0.013157      0.010430     -0.006315
      9.60166      0.00000     13.29194         0.004527      0.000000      0.009117
 -----------------------------------------------------------------------------------
    total drift:                               -0.050279      0.000000      0.144654


--------------------------------------------------------------------------------------------------------



  FREE ENERGIE OF THE ION-ELECTRON SYSTEM (eV)
  ---------------------------------------------------
  free  energy   TOTEN  =      -613.88775091 eV

  energy  without entropy=     -613.81501572  energy(sigma->0) =     -613.85138331
 
 d Force = 0.9111922E-03[ 0.526E-03, 0.130E-02]  d Energy = 0.8515753E-03 0.596E-04
 d Force = 0.3901981E+02[ 0.390E+02, 0.390E+02]  d Ewald  = 0.3901982E+02-0.222E-05


--------------------------------------------------------------------------------------------------------


    POTLOK:  cpu time    0.0958: real time    0.0960


--------------------------------------------------------------------------------------------------------


 stress matrix after NEB project (eV)
    -18.47658      0.00000      0.03064
      0.00000     -9.63965      0.00000
      0.03064      0.00000     -4.77400
  FORCES: max atom, RMS     0.048660    0.013592
  FORCE total and by dimension    0.133173    0.048173
  Stress total and by dimension   21.379893   18.476580
 Conjugate gradient step on ions:
 trial-energy change:   -0.000852  1 .order   -0.000911   -0.001296   -0.000526
  (g-gl).g = 0.229E-02      g.g   = 0.224E-02  gl.gl    = 0.280E-02
 g(Force)  = 0.224E-02   g(Stress)= 0.000E+00 ortho     = 0.138E-03
 gamma     =   0.81793
 trial     =   0.55065
 opt step  =   0.92726  (harmonic =   0.92726) maximal distance =0.00560350
 next E    =  -613.887991   (d E  =  -0.00109)


--------------------------------------------------------------------------------------------------------


  
 reached required accuracy - stopping structural energy minimisation
     LOOP+:  cpu time   80.5318: real time   80.8020
    4ORBIT:  cpu time    0.0000: real time    0.0000

 total amount of memory used by VASP MPI-rank0   127893. kBytes
=======================================================================

   base      :      30000. kBytes
   nonlr-proj:       5795. kBytes
   fftplans  :       3841. kBytes
   grid      :      10919. kBytes
   one-center:        311. kBytes
   wavefun   :      77027. kBytes
 
  
  
 General timing and accounting informations for this job:
 ========================================================
  
                  Total CPU time used (sec):     2122.387
                            User time (sec):     2082.291
                          System time (sec):       40.096
                         Elapsed time (sec):     2130.814
  
                   Maximum memory used (kb):      207976.
                   Average memory used (kb):           0.
  
                          Minor page faults:       149812
                          Major page faults:          180
                 Voluntary context switches:         3574
