 vasp.5.4.4.18Apr17-6-g9f103f2a35 (build Feb 25 2019 10:51:38) complex          
  
 executed on             LinuxIFC date 2023.03.14  10:59:58
 running on   40 total cores
 distrk:  each k-point on   40 cores,    1 groups
 distr:  one band on NCORES_PER_BAND=  10 cores,    4 groups


--------------------------------------------------------------------------------------------------------


 INCAR:
 POTCAR:    PAW_PBE Ir 06Sep2000                  
 POTCAR:    PAW_PBE O 08Apr2002                   
 POTCAR:    PAW_PBE Ir 06Sep2000                  
 POTCAR:    PAW_PBE O 08Apr2002                   
 POTCAR:    PAW_PBE Ir 06Sep2000                  
   VRHFIN =Ir: s1d8                                                             
   LEXCH  = PE                                                                  
   EATOM  =   560.1833 eV,   41.1723 Ry                                         
                                                                                
   TITEL  = PAW_PBE Ir 06Sep2000                                                
   LULTRA =        F    use ultrasoft PP ?                                      
   IUNSCR =        1    unscreen: 0-lin 1-nonlin 2-no                           
   RPACOR =    2.250    partial core radius                                     
   POMASS =  192.220; ZVAL   =    9.000    mass and valenz                      
   RCORE  =    2.600    outmost cutoff radius                                   
   RWIGS  =    2.690; RWIGS  =    1.423    wigner-seitz radius (au A)           
   ENMAX  =  210.864; ENMIN  =  158.148 eV                                      
   RCLOC  =    1.857    cutoff for local pot                                    
   LCOR   =        T    correct aug charges                                     
   LPAW   =        T    paw PP                                                  
   EAUG   =  318.962                                                            
   DEXC   =    0.000                                                            
   RMAX   =    2.667    core radius for proj-oper                               
   RAUG   =    1.300    factor for augmentation sphere                          
   RDEP   =    2.748    radius for radial grids                                 
   RDEPT  =    2.300    core radius for aug-charge                              
                                                                                
   Atomic configuration                                                         
   16 entries                                                                   
     n  l   j            E        occ.                                          
     1  0  0.50    -76100.0449   2.0000                                         
     2  0  0.50    -13308.1683   2.0000                                         
     2  1  1.50    -11558.0021   6.0000                                         
     3  0  0.50     -3110.7274   2.0000                                         
     3  1  1.50     -2599.2109   6.0000                                         
     3  2  2.50     -2037.1515  10.0000                                         
     4  0  0.50      -661.6001   2.0000                                         
     4  1  1.50      -493.8981   6.0000                                         
     4  2  2.50      -288.1909  10.0000                                         
     4  3  3.50       -59.5718  14.0000                                         
     5  0  0.50       -95.3879   2.0000                                         
     5  1  1.50       -52.2747   6.0000                                         
     5  2  2.50        -5.4180   8.0000                                         
     6  0  0.50        -5.5479   1.0000                                         
     6  1  1.50        -6.8029   0.0000                                         
     5  3  2.50        -1.3606   0.0000                                         
   Description                                                                  
     l       E           TYP  RCUT    TYP  RCUT                                 
     2     -5.4179967     23  2.600                                             
     2     -6.7785793     23  2.600                                             
     0     -5.5478636     23  2.600                                             
     0      2.2542272     23  2.600                                             
     1     -2.7211652     23  2.600                                             
     1     20.4087390     23  2.600                                             
  local pseudopotential read in
  partial core-charges read in
  partial kinetic energy density read in
  atomic valenz-charges read in
  non local Contribution for L=           2  read in
    real space projection operators read in
  non local Contribution for L=           2  read in
    real space projection operators read in
  non local Contribution for L=           0  read in
    real space projection operators read in
  non local Contribution for L=           0  read in
    real space projection operators read in
  non local Contribution for L=           1  read in
    real space projection operators read in
  non local Contribution for L=           1  read in
    real space projection operators read in
    PAW grid and wavefunctions read in
 
   number of l-projection  operators is LMAX  =           6
   number of lm-projection operators is LMMAX =          18
 
 POTCAR:    PAW_PBE O 08Apr2002                   
   VRHFIN =O: s2p4                                                              
   LEXCH  = PE                                                                  
   EATOM  =   432.3788 eV,   31.7789 Ry                                         
                                                                                
   TITEL  = PAW_PBE O 08Apr2002                                                 
   LULTRA =        F    use ultrasoft PP ?                                      
   IUNSCR =        1    unscreen: 0-lin 1-nonlin 2-no                           
   RPACOR =    1.200    partial core radius                                     
   POMASS =   16.000; ZVAL   =    6.000    mass and valenz                      
   RCORE  =    1.520    outmost cutoff radius                                   
   RWIGS  =    1.550; RWIGS  =    0.820    wigner-seitz radius (au A)           
   ENMAX  =  400.000; ENMIN  =  300.000 eV                                      
   ICORE  =        2    local potential                                         
   LCOR   =        T    correct aug charges                                     
   LPAW   =        T    paw PP                                                  
   EAUG   =  605.392                                                            
   DEXC   =    0.000                                                            
   RMAX   =    1.553    core radius for proj-oper                               
   RAUG   =    1.300    factor for augmentation sphere                          
   RDEP   =    1.550    radius for radial grids                                 
   RDEPT  =    1.329    core radius for aug-charge                              
                                                                                
   Atomic configuration                                                         
    4 entries                                                                   
     n  l   j            E        occ.                                          
     1  0  0.50      -514.6923   2.0000                                         
     2  0  0.50       -23.9615   2.0000                                         
     2  1  0.50        -9.0305   4.0000                                         
     3  2  1.50        -9.5241   0.0000                                         
   Description                                                                  
     l       E           TYP  RCUT    TYP  RCUT                                 
     0    -23.9615318     23  1.200                                             
     0     -9.5240782     23  1.200                                             
     1     -9.0304911     23  1.520                                             
     1      8.1634956     23  1.520                                             
     2     -9.5240782      7  1.500                                             
  local pseudopotential read in
  partial core-charges read in
  partial kinetic energy density read in
  kinetic energy density of atom read in
  atomic valenz-charges read in
  non local Contribution for L=           0  read in
    real space projection operators read in
  non local Contribution for L=           0  read in
    real space projection operators read in
  non local Contribution for L=           1  read in
    real space projection operators read in
  non local Contribution for L=           1  read in
    real space projection operators read in
    PAW grid and wavefunctions read in
 
   number of l-projection  operators is LMAX  =           4
   number of lm-projection operators is LMMAX =           8
 
 POTCAR:    PAW_PBE Ir 06Sep2000                  
   VRHFIN =Ir: s1d8                                                             
   LEXCH  = PE                                                                  
   EATOM  =   560.1833 eV,   41.1723 Ry                                         
                                                                                
   TITEL  = PAW_PBE Ir 06Sep2000                                                
   LULTRA =        F    use ultrasoft PP ?                                      
   IUNSCR =        1    unscreen: 0-lin 1-nonlin 2-no                           
   RPACOR =    2.250    partial core radius                                     
   POMASS =  192.220; ZVAL   =    9.000    mass and valenz                      
   RCORE  =    2.600    outmost cutoff radius                                   
   RWIGS  =    2.690; RWIGS  =    1.423    wigner-seitz radius (au A)           
   ENMAX  =  210.864; ENMIN  =  158.148 eV                                      
   RCLOC  =    1.857    cutoff for local pot                                    
   LCOR   =        T    correct aug charges                                     
   LPAW   =        T    paw PP                                                  
   EAUG   =  318.962                                                            
   DEXC   =    0.000                                                            
   RMAX   =    2.667    core radius for proj-oper                               
   RAUG   =    1.300    factor for augmentation sphere                          
   RDEP   =    2.748    radius for radial grids                                 
   RDEPT  =    2.300    core radius for aug-charge                              
                                                                                
   Atomic configuration                                                         
   16 entries                                                                   
     n  l   j            E        occ.                                          
     1  0  0.50    -76100.0449   2.0000                                         
     2  0  0.50    -13308.1683   2.0000                                         
     2  1  1.50    -11558.0021   6.0000                                         
     3  0  0.50     -3110.7274   2.0000                                         
     3  1  1.50     -2599.2109   6.0000                                         
     3  2  2.50     -2037.1515  10.0000                                         
     4  0  0.50      -661.6001   2.0000                                         
     4  1  1.50      -493.8981   6.0000                                         
     4  2  2.50      -288.1909  10.0000                                         
     4  3  3.50       -59.5718  14.0000                                         
     5  0  0.50       -95.3879   2.0000                                         
     5  1  1.50       -52.2747   6.0000                                         
     5  2  2.50        -5.4180   8.0000                                         
     6  0  0.50        -5.5479   1.0000                                         
     6  1  1.50        -6.8029   0.0000                                         
     5  3  2.50        -1.3606   0.0000                                         
   Description                                                                  
     l       E           TYP  RCUT    TYP  RCUT                                 
     2     -5.4179967     23  2.600                                             
     2     -6.7785793     23  2.600                                             
     0     -5.5478636     23  2.600                                             
     0      2.2542272     23  2.600                                             
     1     -2.7211652     23  2.600                                             
     1     20.4087390     23  2.600                                             
  local pseudopotential read in
  partial core-charges read in
  partial kinetic energy density read in
  atomic valenz-charges read in
  non local Contribution for L=           2  read in
    real space projection operators read in
  non local Contribution for L=           2  read in
    real space projection operators read in
  non local Contribution for L=           0  read in
    real space projection operators read in
  non local Contribution for L=           0  read in
    real space projection operators read in
  non local Contribution for L=           1  read in
    real space projection operators read in
  non local Contribution for L=           1  read in
    real space projection operators read in
    PAW grid and wavefunctions read in
 
   number of l-projection  operators is LMAX  =           6
   number of lm-projection operators is LMMAX =          18
 
 POTCAR:    PAW_PBE O 08Apr2002                   
   VRHFIN =O: s2p4                                                              
   LEXCH  = PE                                                                  
   EATOM  =   432.3788 eV,   31.7789 Ry                                         
                                                                                
   TITEL  = PAW_PBE O 08Apr2002                                                 
   LULTRA =        F    use ultrasoft PP ?                                      
   IUNSCR =        1    unscreen: 0-lin 1-nonlin 2-no                           
   RPACOR =    1.200    partial core radius                                     
   POMASS =   16.000; ZVAL   =    6.000    mass and valenz                      
   RCORE  =    1.520    outmost cutoff radius                                   
   RWIGS  =    1.550; RWIGS  =    0.820    wigner-seitz radius (au A)           
   ENMAX  =  400.000; ENMIN  =  300.000 eV                                      
   ICORE  =        2    local potential                                         
   LCOR   =        T    correct aug charges                                     
   LPAW   =        T    paw PP                                                  
   EAUG   =  605.392                                                            
   DEXC   =    0.000                                                            
   RMAX   =    1.553    core radius for proj-oper                               
   RAUG   =    1.300    factor for augmentation sphere                          
   RDEP   =    1.550    radius for radial grids                                 
   RDEPT  =    1.329    core radius for aug-charge                              
                                                                                
   Atomic configuration                                                         
    4 entries                                                                   
     n  l   j            E        occ.                                          
     1  0  0.50      -514.6923   2.0000                                         
     2  0  0.50       -23.9615   2.0000                                         
     2  1  0.50        -9.0305   4.0000                                         
     3  2  1.50        -9.5241   0.0000                                         
   Description                                                                  
     l       E           TYP  RCUT    TYP  RCUT                                 
     0    -23.9615318     23  1.200                                             
     0     -9.5240782     23  1.200                                             
     1     -9.0304911     23  1.520                                             
     1      8.1634956     23  1.520                                             
     2     -9.5240782      7  1.500                                             
  local pseudopotential read in
  partial core-charges read in
  partial kinetic energy density read in
  kinetic energy density of atom read in
  atomic valenz-charges read in
  non local Contribution for L=           0  read in
    real space projection operators read in
  non local Contribution for L=           0  read in
    real space projection operators read in
  non local Contribution for L=           1  read in
    real space projection operators read in
  non local Contribution for L=           1  read in
    real space projection operators read in
    PAW grid and wavefunctions read in
 
   number of l-projection  operators is LMAX  =           4
   number of lm-projection operators is LMMAX =           8
 
 Optimization of the real space projectors (new method)

 maximal supplied QI-value         = 14.36
 optimisation between [QCUT,QGAM] = [ 11.35, 22.84] = [ 36.05,146.02] Ry 
 Optimized for a Real-space Cutoff    1.52 Angstroem

   l    n(q)    QCUT    max X(q) W(low)/X(q) W(high)/X(q)  e(spline) 
   2      9    11.346   134.116    0.47E-03    0.13E-03    0.92E-06
   2      9    11.346   130.192    0.47E-03    0.13E-03    0.92E-06
   0     10    11.346    60.310    0.74E-04    0.13E-03    0.69E-06
   0     10    11.346    39.218    0.68E-04    0.12E-03    0.65E-06
   1     10    11.346    18.439    0.15E-03    0.34E-04    0.20E-06
   1     10    11.346    12.760    0.12E-03    0.31E-04    0.16E-06
 Optimization of the real space projectors (new method)

 maximal supplied QI-value         = 24.76
 optimisation between [QCUT,QGAM] = [ 11.39, 22.77] = [ 36.31,145.25] Ry 
 Optimized for a Real-space Cutoff    1.00 Angstroem

   l    n(q)    QCUT    max X(q) W(low)/X(q) W(high)/X(q)  e(spline) 
   0      7    11.387    20.381    0.39E-03    0.13E-02    0.15E-06
   0      7    11.387    15.268    0.42E-03    0.14E-02    0.17E-06
   1      6    11.387     5.964    0.41E-03    0.11E-02    0.17E-06
   1      6    11.387     5.382    0.39E-03    0.87E-03    0.15E-06
 Optimization of the real space projectors (new method)

 maximal supplied QI-value         = 14.36
 optimisation between [QCUT,QGAM] = [ 11.35, 22.84] = [ 36.05,146.02] Ry 
 Optimized for a Real-space Cutoff    1.52 Angstroem

   l    n(q)    QCUT    max X(q) W(low)/X(q) W(high)/X(q)  e(spline) 
   2      9    11.346   134.116    0.47E-03    0.13E-03    0.92E-06
   2      9    11.346   130.192    0.47E-03    0.13E-03    0.92E-06
   0     10    11.346    60.310    0.74E-04    0.13E-03    0.69E-06
   0     10    11.346    39.218    0.68E-04    0.12E-03    0.65E-06
   1     10    11.346    18.439    0.15E-03    0.34E-04    0.20E-06
   1     10    11.346    12.760    0.12E-03    0.31E-04    0.16E-06
 Optimization of the real space projectors (new method)

 maximal supplied QI-value         = 24.76
 optimisation between [QCUT,QGAM] = [ 11.39, 22.77] = [ 36.31,145.25] Ry 
 Optimized for a Real-space Cutoff    1.00 Angstroem

   l    n(q)    QCUT    max X(q) W(low)/X(q) W(high)/X(q)  e(spline) 
   0      7    11.387    20.381    0.39E-03    0.13E-02    0.15E-06
   0      7    11.387    15.268    0.42E-03    0.14E-02    0.17E-06
   1      6    11.387     5.964    0.41E-03    0.11E-02    0.17E-06
   1      6    11.387     5.382    0.39E-03    0.87E-03    0.15E-06

 ----------------------------------------------------------------------------- 
|                                                                             |
|  ADVICE TO THIS USER RUNNING 'VASP/VAMP'   (HEAR YOUR MASTER'S VOICE ...):  |
|                                                                             |
|      You enforced a specific xc-type in the INCAR file,                     |
|      a different type was found on the POTCAR file                          |
|          I HOPE YOU KNOW, WHAT YOU ARE  DOING                               |
|                                                                             |
 ----------------------------------------------------------------------------- 

  PAW_PBE Ir 06Sep2000                  :
 energy of atom  1       EATOM= -560.1833
 kinetic energy error for atom=    0.0018 (will be added to EATOM!!)
  PAW_PBE O 08Apr2002                   :
 energy of atom  2       EATOM= -432.3788
 kinetic energy error for atom=    0.0224 (will be added to EATOM!!)
  PAW_PBE Ir 06Sep2000                  :
 energy of atom  3       EATOM= -560.1833
 kinetic energy error for atom=    0.0018 (will be added to EATOM!!)
  PAW_PBE O 08Apr2002                   :
 energy of atom  4       EATOM= -432.3788
 kinetic energy error for atom=    0.0224 (will be added to EATOM!!)
 
 
 POSCAR: Ir  O Ir  O                             
  positions in cartesian coordinates
  No initial velocities read in
 exchange correlation table for  LEXCH =        9
   RHO(1)=    0.500       N(1)  =     2000
   RHO(2)=  100.500       N(2)  =     4000

 VTST: version 3.2, (02/03/18)

 CHAIN: initializing optimizer
 
 OPT: Using VASP Conjugate-Gradient optimizer
 CHAIN: Read ICHAIN            0
 
 POSCAR: Ir  O Ir  O                             
  positions in cartesian coordinates
  No initial velocities read in
 


--------------------------------------------------------------------------------------------------------


 ion  position               nearest neighbor table
   1  0.125  0.500  0.188-  21 2.00  29 2.00  17 2.02  25 2.02  26 2.02  18 2.02   2 3.20  50 3.20

   2  0.375  0.500  0.188-  22 2.00  30 2.00  26 2.02  18 2.02  65 2.02  73 2.02   1 3.20  49 3.20

   3  0.125  0.000  0.062-  23 2.00  31 2.00  19 2.02  27 2.02  28 2.02  20 2.02   4 3.20  52 3.20

   4  0.375  0.000  0.062-  24 2.00  32 2.00  28 2.02  20 2.02  67 2.02  75 2.02   3 3.20  51 3.20

   5  0.000  0.500  0.062-  17 2.00  23 2.02  31 2.02  72 2.02  80 2.02   6 3.20  54 3.20
   6  0.250  0.500  0.062-  18 2.00  23 2.02  24 2.02  31 2.02  32 2.02   5 3.20  53 3.20
   7  0.000  0.000  0.188-  35 1.98  27 2.00  29 2.02  21 2.02  70 2.02  78 2.02   8 3.20  56 3.20

   8  0.250  0.000  0.188-  36 1.98  28 2.00  21 2.02  29 2.02  30 2.02  22 2.02   7 3.20  55 3.20

   9  0.125  0.500  0.439-  41 1.99  42 1.99  37 2.01  45 2.01  33 2.04  34 2.04  58 3.20  10 3.20

  10  0.375  0.500  0.439-  89 1.99  42 1.99  46 2.01  38 2.01  81 2.04  34 2.04  57 3.20   9 3.20

  11  0.125  0.000  0.312-  39 2.00  47 2.00  43 2.02  44 2.02  35 2.03  36 2.03  60 3.20  12 3.20

  12  0.375  0.000  0.312-  40 2.00  48 2.00  90 2.02  44 2.02  83 2.03  36 2.03  59 3.20  11 3.20

  13  1.000  0.500  0.313-  33 1.99  25 2.01  88 2.02  95 2.02  39 2.02  47 2.02  62 3.20  14 3.20

  14  0.250  0.500  0.313-  34 1.99  26 2.01  48 2.03  40 2.03  47 2.03  39 2.03  13 3.20  61 3.20

  15  0.000  0.000  0.435-  43 1.96  37 2.02  45 2.02  86 2.02  93 2.02  16 3.20  64 3.20
  16  0.250  0.000  0.435-  44 1.96  37 2.02  45 2.02  38 2.02  46 2.02  15 3.20  63 3.20
  17  0.000  0.500  0.140-   5 2.00   1 2.02  50 2.02
  18  0.250  0.500  0.140-   6 2.00   2 2.02   1 2.02
  19  0.000  0.000  0.015-   3 2.02  52 2.02
  20  0.250  0.000  0.015-   3 2.02   4 2.02
  21  0.125  0.808  0.188-   1 2.00   7 2.02   8 2.02
  22  0.375  0.808  0.188-   2 2.00   8 2.02  55 2.02
  23  0.125  0.308  0.062-   3 2.00   5 2.02   6 2.02
  24  0.375  0.308  0.062-   4 2.00   6 2.02  53 2.02
  25  0.000  0.500  0.235-  13 2.01   1 2.02  50 2.02
  26  0.250  0.500  0.235-  14 2.01   2 2.02   1 2.02
  27  0.000  0.000  0.110-   7 2.00   3 2.02  52 2.02
  28  0.250  0.000  0.110-   8 2.00   4 2.02   3 2.02
  29  0.125  0.192  0.188-   1 2.00   7 2.02   8 2.02
  30  0.375  0.192  0.188-   2 2.00   8 2.02  55 2.02
  31  0.125  0.692  0.062-   3 2.00   5 2.02   6 2.02
  32  0.375  0.692  0.062-   4 2.00   6 2.02  53 2.02
  33  0.000  0.500  0.390-  13 1.99   9 2.04  58 2.04
  34  0.250  0.500  0.390-  14 1.99   9 2.04  10 2.04
  35  1.000  0.000  0.264-   7 1.98  60 2.03  11 2.03
  36  0.250  0.000  0.264-   8 1.98  12 2.03  11 2.03
  37  0.125  0.810  0.441-   9 2.01  16 2.02  15 2.02
  38  0.375  0.810  0.441-  10 2.01  16 2.02  63 2.02
  39  0.125  0.308  0.313-  11 2.00  13 2.02  14 2.03
  40  0.375  0.308  0.313-  12 2.00  61 2.02  14 2.03
  41  0.000  0.500  0.485-   9 1.99  58 2.00
  42  0.250  0.500  0.485-  10 1.99   9 1.99
  43  1.000  0.000  0.360-  15 1.96  60 2.02  11 2.02
  44  0.250  0.000  0.360-  16 1.96  11 2.02  12 2.02
  45  0.125  0.190  0.441-   9 2.01  16 2.02  15 2.02
  46  0.375  0.190  0.441-  10 2.01  16 2.02  63 2.02
  47  0.125  0.692  0.313-  11 2.00  13 2.02  14 2.03
  48  0.375  0.692  0.313-  12 2.00  61 2.02  14 2.03
  49  0.625  0.500  0.188-  69 2.00  77 2.00  65 2.02  73 2.02  74 2.02  66 2.02   2 3.20  50 3.20

  50  0.875  0.500  0.188-  70 2.00  78 2.00  66 2.02  17 2.02  74 2.02  25 2.02   1 3.20  49 3.20

  51  0.625  0.000  0.062-  71 2.00  79 2.00  67 2.02  75 2.02  76 2.02  68 2.02   4 3.20  52 3.20

  52  0.875  0.000  0.062-  72 2.00  80 2.00  68 2.02  19 2.02  76 2.02  27 2.02   3 3.20  51 3.20

  53  0.500  0.500  0.062-  65 2.00  32 2.02  24 2.02  71 2.02  79 2.02  54 3.20   6 3.20
  54  0.750  0.500  0.062-  66 2.00  71 2.02  72 2.02  79 2.02  80 2.02  53 3.20   5 3.20
  55  0.500  0.000  0.188-  83 1.98  75 2.00  69 2.02  22 2.02  77 2.02  30 2.02   8 3.20  56 3.20

  56  0.750  0.000  0.188-  84 1.98  76 2.00  69 2.02  77 2.02  78 2.02  70 2.02   7 3.20  55 3.20

  57  0.625  0.500  0.439-  89 2.00  85 2.01  92 2.01  81 2.04  82 2.04  10 3.20  58 3.20
  58  0.875  0.500  0.439-  41 2.00  86 2.01  93 2.01  33 2.04  82 2.04   9 3.20  57 3.20
  59  0.625  0.000  0.312-  87 2.00  94 2.00  90 2.02  91 2.02  83 2.03  84 2.03  12 3.20  60 3.20

  60  0.875  0.000  0.312-  88 2.00  95 2.00  43 2.02  91 2.02  35 2.03  84 2.03  11 3.20  59 3.20

  61  0.500  0.500  0.313-  81 1.99  73 2.01  87 2.02  94 2.02  48 2.02  40 2.02  62 3.20  14 3.20

  62  0.750  0.500  0.313-  82 1.99  74 2.01  88 2.03  95 2.03  94 2.03  87 2.03  13 3.20  61 3.20

  63  0.500  0.000  0.435-  90 1.96  85 2.02  92 2.02  46 2.02  38 2.02  16 3.20  64 3.20
  64  0.750  0.000  0.435-  91 1.96  86 2.02  93 2.02  92 2.02  85 2.02  15 3.20  63 3.20
  65  0.500  0.500  0.140-  53 2.00  49 2.02   2 2.02
  66  0.750  0.500  0.140-  54 2.00  50 2.02  49 2.02
  67  0.500  0.000  0.015-   4 2.02  51 2.02
  68  0.750  0.000  0.015-  51 2.02  52 2.02
  69  0.625  0.808  0.188-  49 2.00  55 2.02  56 2.02
  70  0.875  0.808  0.188-  50 2.00   7 2.02  56 2.02
  71  0.625  0.308  0.062-  51 2.00  53 2.02  54 2.02
  72  0.875  0.308  0.062-  52 2.00   5 2.02  54 2.02
  73  0.500  0.500  0.235-  61 2.01  49 2.02   2 2.02
  74  0.750  0.500  0.235-  62 2.01  50 2.02  49 2.02
  75  0.500  0.000  0.110-  55 2.00  51 2.02   4 2.02
  76  0.750  0.000  0.110-  56 2.00  52 2.02  51 2.02
  77  0.625  0.192  0.188-  49 2.00  55 2.02  56 2.02
  78  0.875  0.192  0.188-  50 2.00   7 2.02  56 2.02
  79  0.625  0.692  0.062-  51 2.00  53 2.02  54 2.02
  80  0.875  0.692  0.062-  52 2.00   5 2.02  54 2.02
  81  0.500  0.500  0.390-  61 1.99  10 2.04  57 2.04
  82  0.750  0.500  0.390-  62 1.99  58 2.04  57 2.04
  83  0.500  0.000  0.264-  55 1.98  59 2.03  12 2.03
  84  0.750  0.000  0.264-  56 1.98  59 2.03  60 2.03
  85  0.625  0.810  0.441-  57 2.01  64 2.02  63 2.02
  86  0.875  0.810  0.441-  58 2.01  64 2.02  15 2.02
  87  0.625  0.308  0.313-  59 2.00  61 2.02  62 2.03
  88  0.875  0.308  0.313-  60 2.00  13 2.02  62 2.03
  89  0.500  0.500  0.485-  10 1.99  57 2.00
  90  0.500  0.000  0.360-  63 1.96  59 2.02  12 2.02
  91  0.750  0.000  0.360-  64 1.96  59 2.02  60 2.02
  92  0.625  0.190  0.441-  57 2.01  64 2.02  63 2.02
  93  0.875  0.190  0.441-  58 2.01  64 2.02  15 2.02
  94  0.625  0.692  0.313-  59 2.00  61 2.02  62 2.03
  95  0.875  0.692  0.313-  60 2.00  13 2.02  62 2.03
 
  LATTYP: Found a simple orthorhombic cell.
 ALAT       =     6.4702430000
 B/A-ratio  =     1.9796060210
 C/A-ratio  =     4.0000000000
  
  Lattice vectors:
  
 A1 = (   0.0000000000,  -6.4702430000,   0.0000000000)
 A2 = ( -12.8085320000,   0.0000000000,   0.0000000000)
 A3 = (   0.0000000000,   0.0000000000, -25.8809720000)


Analysis of symmetry for initial positions (statically):
=====================================================================
 Subroutine PRICEL returns:
 Original cell was already a primitive cell.
 

 Routine SETGRP: Setting up the symmetry group for a 
 simple orthorhombic supercell.


 Subroutine GETGRP returns: Found  2 space group operations
 (whereof  2 operations were pure point group operations)
 out of a pool of  8 trial point group operations.


The static configuration has the point symmetry C_1h.


Analysis of symmetry for dynamics (positions and initial velocities):
=====================================================================
 Subroutine PRICEL returns:
 Original cell was already a primitive cell.
 

 Routine SETGRP: Setting up the symmetry group for a 
 simple orthorhombic supercell.


 Subroutine GETGRP returns: Found  2 space group operations
 (whereof  2 operations were pure point group operations)
 out of a pool of  8 trial point group operations.


The dynamic configuration has the point symmetry C_1h.


Analysis of constrained symmetry for selective dynamics:
=====================================================================
 Subroutine PRICEL returns:
 Original cell was already a primitive cell.
 

 Routine SETGRP: Setting up the symmetry group for a 
 simple orthorhombic supercell.


 Subroutine GETGRP returns: Found  2 space group operations
 (whereof  2 operations were pure point group operations)
 out of a pool of  8 trial point group operations.


The constrained configuration has the point symmetry C_1h.


Analysis of structural, dynamic, and magnetic symmetry:
=====================================================================
 Subroutine PRICEL returns:
 Original cell was already a primitive cell.
 

 Routine SETGRP: Setting up the symmetry group for a 
 simple orthorhombic supercell.


 Subroutine GETGRP returns: Found  2 space group operations
 (whereof  2 operations were pure point group operations)
 out of a pool of  8 trial point group operations.


The magnetic configuration has the point symmetry C_1h.


 Subroutine INISYM returns: Found  2 space group operations
 (whereof  2 operations are pure point group operations),
 and found     1 'primitive' translations

 
 
 KPOINTS: Automatic mesh                          

Automatic generation of k-mesh.
Space group operators:
 irot       det(A)        alpha          n_x          n_y          n_z        tau_x        tau_y        tau_z
    1     1.000000     0.000001     1.000000     0.000000     0.000000     0.000000     0.000000     0.000000
    2    -1.000000   180.000000     0.000000     1.000000     0.000000     0.000000     0.000000     0.000000
 
 Subroutine IBZKPT returns following result:
 ===========================================
 
 Found      4 irreducible k-points:
 
 Following reciprocal coordinates:
            Coordinates               Weight
  0.000000  0.000000  0.000000      1.000000
  0.333333  0.000000  0.000000      2.000000
  0.000000  0.333333  0.000000      2.000000
  0.333333  0.333333  0.000000      4.000000
 
 Following cartesian coordinates:
            Coordinates               Weight
  0.000000  0.000000  0.000000      1.000000
  0.026024  0.000000  0.000000      2.000000
  0.000000  0.051518  0.000000      2.000000
  0.026024  0.051518  0.000000      4.000000
 


--------------------------------------------------------------------------------------------------------




 Dimension of arrays:
   k-points           NKPTS =      4   k-points in BZ     NKDIM =      4   number of bands    NBANDS=    428
   number of dos      NEDOS =    301   number of ions     NIONS =     95
   non local maximal  LDIM  =      6   non local SUM 2l+1 LMDIM =     18
   total plane-waves  NPLWV = 362880
   max r-space proj   IRMAX =   2532   max aug-charges    IRDMAX=  12432
   dimension x,y,z NGX =    70 NGY =   36 NGZ =  144
   dimension x,y,z NGXF=   140 NGYF=   72 NGZF=  288
   support grid    NGXF=   140 NGYF=   72 NGZF=  288
   ions per type =              16  32  16  31
   NGX,Y,Z   is equivalent  to a cutoff of   9.09,  9.25,  9.25 a.u.
   NGXF,Y,Z  is equivalent  to a cutoff of  18.17, 18.50, 18.50 a.u.

 SYSTEM =  unknown system                          
 POSCAR =  Ir  O Ir  O                             

 Startparameter for this run:
   NWRITE =      2    write-flag & timer
   PREC   = normal    normal or accurate (medium, high low for compatibility)
   ISTART =      0    job   : 0-new  1-cont  2-samecut
   ICHARG =      2    charge: 1-file 2-atom 10-const
   ISPIN  =      2    spin polarized calculation?
   LNONCOLLINEAR =      F non collinear calculations
   LSORBIT =      F    spin-orbit coupling
   INIWAV =      1    electr: 0-lowe 1-rand  2-diag
   LASPH  =      F    aspherical Exc in radial PAW
   METAGGA=      F    non-selfconsistent MetaGGA calc.

 Electronic Relaxation 1
   ENCUT  =  500.0 eV  36.75 Ry    6.06 a.u.  23.35 11.80 47.19*2*pi/ulx,y,z
   ENINI  =  500.0     initial cutoff
   ENAUG  =  605.4 eV  augmentation charge cutoff
   NELM   =     60;   NELMIN=  4; NELMDL= -5     # of ELM steps 
   EDIFF  = 0.1E-04   stopping-criterion for ELM
   LREAL  =      T    real-space projection
   NLSPLINE    = F    spline interpolate recip. space projectors
   LCOMPAT=      F    compatible to vasp.4.4
   GGA_COMPAT  = T    GGA compatible to vasp.4.4-vasp.4.6
   LMAXPAW     = -100 max onsite density
   LMAXMIX     =    2 max onsite mixed and CHGCAR
   VOSKOWN=      0    Vosko Wilk Nusair interpolation
   ROPT   =   -0.00050  -0.00050  -0.00050  -0.00050
 Ionic relaxation
   EDIFFG = -.5E-01   stopping-criterion for IOM
   NSW    =    500    number of steps for IOM
   NBLOCK =      1;   KBLOCK =    500    inner block; outer block 
   IBRION =      2    ionic relax: 0-MD 1-quasi-New 2-CG
   NFREE  =      1    steps in history (QN), initial steepest desc. (CG)
   ISIF   =      2    stress and relaxation
   IWAVPR =     11    prediction:  0-non 1-charg 2-wave 3-comb
   ISYM   =      2    0-nonsym 1-usesym 2-fastsym
   LCORR  =      T    Harris-Foulkes like correction to forces

   POTIM  = 0.5000    time-step for ionic-motion
   TEIN   =    0.0    initial temperature
   TEBEG  =    0.0;   TEEND  =   0.0 temperature during run
   SMASS  =  -3.00    Nose mass-parameter (am)
   estimated Nose-frequenzy (Omega)   =  0.10E-29 period in steps =****** mass=  -0.375E-26a.u.
   SCALEE = 1.0000    scale energy and forces
   NPACO  =    256;   APACO  = 16.0  distance and # of slots for P.C.
   PSTRESS=    0.0 pullay stress

  Mass of Ions in am
   POMASS = 192.22 16.00192.22 16.00
  Ionic Valenz
   ZVAL   =   9.00  6.00  9.00  6.00
  Atomic Wigner-Seitz radii
   RWIGS  =  -1.00 -1.00 -1.00 -1.00
  virtual crystal weights 
   VCA    =   1.00  1.00  1.00  1.00
   NELECT =     666.0000    total number of electrons
   NUPDOWN=      -1.0000    fix difference up-down

 DOS related values:
   EMIN   =  10.00;   EMAX   =-10.00  energy-range for DOS
   EFERMI =   0.00
   ISMEAR =     0;   SIGMA  =   0.05  broadening in eV -4-tet -1-fermi 0-gaus

 Electronic relaxation 2 (details)
   IALGO  =     68    algorithm
   LDIAG  =      T    sub-space diagonalisation (order eigenvalues)
   LSUBROT=      F    optimize rotation matrix (better conditioning)
   TURBO    =      0    0=normal 1=particle mesh
   IRESTART =      0    0=no restart 2=restart with 2 vectors
   NREBOOT  =      0    no. of reboots
   NMIN     =      0    reboot dimension
   EREF     =   0.00    reference energy to select bands
   IMIX   =      4    mixing-type and parameters
     AMIX     =   0.40;   BMIX     =  1.00
     AMIX_MAG =   1.60;   BMIX_MAG =  1.00
     AMIN     =   0.10
     WC   =   100.;   INIMIX=   1;  MIXPRE=   1;  MAXMIX= -45

 Intra band minimization:
   WEIMIN = 0.0010     energy-eigenvalue tresh-hold
   EBREAK =  0.58E-08  absolut break condition
   DEPER  =   0.30     relativ break condition  

   TIME   =   0.40     timestep for ELM

  volume/ion in A,a.u.               =      22.58       152.36
  Fermi-wavevector in a.u.,A,eV,Ry     =   1.108578  2.094908 16.720799  1.228944
  Thomas-Fermi vector in A             =   2.245106
 
 Write flags
   LWAVE        =      F    write WAVECAR
   LDOWNSAMPLE  =      F    k-point downsampling of WAVECAR
   LCHARG       =      F    write CHGCAR
   LVTOT        =      F    write LOCPOT, total local potential
   LVHAR        =      F    write LOCPOT, Hartree potential only
   LELF         =      F    write electronic localiz. function (ELF)
   LORBIT       =      0    0 simple, 1 ext, 2 COOP (PROOUT), +10 PAW based schemes


 Dipole corrections
   LMONO  =      F    monopole corrections only (constant potential shift)
   LDIPOL =      T    correct potential (dipole corrections)
   IDIPOL =      3    1-x, 2-y, 3-z, 4-all directions 
   EPSILON=  1.0000000 bulk dielectric constant

 Exchange correlation treatment:
   GGA     =    RP    GGA type
   LEXCH   =     9    internal setting for exchange type
   VOSKOWN=      0    Vosko Wilk Nusair interpolation
   LHFCALC =     F    Hartree Fock is set to
   LHFONE  =     F    Hartree Fock one center treatment
   AEXX    =    0.0000 exact exchange contribution

 Linear response parameters
   LEPSILON=     F    determine dielectric tensor
   LRPA    =     F    only Hartree local field effects (RPA)
   LNABLA  =     F    use nabla operator in PAW spheres
   LVEL    =     F    velocity operator in full k-point grid
   LINTERFAST=   F  fast interpolation
   KINTER  =     0    interpolate to denser k-point grid
   CSHIFT  =0.1000    complex shift for real part using Kramers Kronig
   OMEGAMAX=  -1.0    maximum frequency
   DEG_THRESHOLD= 0.2000000E-02 threshold for treating states as degnerate
   RTIME   =   -0.100 relaxation time in fs
  (WPLASMAI=    0.000 imaginary part of plasma frequency in eV, 0.658/RTIME)
   DFIELD  = 0.0000000 0.0000000 0.0000000 field for delta impulse in time
 
 Orbital magnetization related:
   ORBITALMAG=     F  switch on orbital magnetization
   LCHIMAG   =     F  perturbation theory with respect to B field
   DQ        =  0.001000  dq finite difference perturbation B field
   LLRAUG    =     F  two centre corrections for induced B field



--------------------------------------------------------------------------------------------------------


 conjugate gradient relaxation of ions
   using selective dynamics as specified on POSCAR
   WARNING: If single coordinates had been selected the selection of coordinates
            is made according to the corresponding   d i r e c t   coordinates!
            Don't support selection of single cartesian coordinates -- sorry ...
  !
 charge density and potential will be updated during run
 spin polarized calculation
 RMM-DIIS sequential band-by-band and
  variant of blocked Davidson during initial phase
 perform sub-space diagonalisation
    before iterative eigenvector-optimisation
 modified Broyden-mixing scheme, WC =      100.0
 initial mixing is a Kerker type mixing with AMIX =  0.4000 and BMIX =      1.0000
 Hartree-type preconditioning will be used
 using additional bands           95
 real space projection scheme for non local part
 use partial core corrections
 calculate Harris-corrections to forces 
   (improved forces if not selfconsistent)
 use gradient corrections 
 use of overlap-Matrix (Vanderbilt PP)
 Gauss-broadening in eV      SIGMA  =   0.05


--------------------------------------------------------------------------------------------------------


  energy-cutoff  :      500.00
  volume of cell :     2144.87
      direct lattice vectors                 reciprocal lattice vectors
    12.808532000  0.000000000  0.000000000     0.078072959  0.000000000  0.000000000
     0.000000000  6.470243000  0.000000000     0.000000000  0.154553701  0.000000000
     0.000000000  0.000000000 25.880972000     0.000000000  0.000000000  0.038638425

  length of vectors
    12.808532000  6.470243000 25.880972000     0.078072959  0.154553701  0.038638425


 
 k-points in units of 2pi/SCALE and weight: Automatic mesh                          
   0.00000000  0.00000000  0.00000000       0.111
   0.02602432  0.00000000  0.00000000       0.222
   0.00000000  0.05151790  0.00000000       0.222
   0.02602432  0.05151790  0.00000000       0.444
 
 k-points in reciprocal lattice and weights: Automatic mesh                          
   0.00000000  0.00000000  0.00000000       0.111
   0.33333333  0.00000000  0.00000000       0.222
   0.00000000  0.33333333  0.00000000       0.222
   0.33333333  0.33333333  0.00000000       0.444
 
 position of ions in fractional coordinates (direct lattice) 
   0.12500000  0.50000000  0.18750000
   0.37500000  0.50000000  0.18750000
   0.12500000  0.00000000  0.06250000
   0.37500000  0.00000000  0.06250000
   0.00000000  0.50000000  0.06250000
   0.25000000  0.50000000  0.06250000
   0.00000000  0.00000000  0.18750000
   0.25000000  0.00000000  0.18750000
   0.12498476  0.50000000  0.43896991
   0.37500385  0.50000000  0.43897212
   0.12499516  0.00000000  0.31211760
   0.37499951  0.00000000  0.31211853
   0.99999986  0.50000000  0.31308780
   0.24999695  0.50000000  0.31304919
   0.00001260  0.00000000  0.43516652
   0.24999832  0.00000000  0.43522899
   0.00000000  0.50000000  0.13961000
   0.25000000  0.50000000  0.13961000
   0.00000000  0.00000000  0.01461000
   0.25000000  0.00000000  0.01461000
   0.12500000  0.80844000  0.18750000
   0.37500000  0.80844000  0.18750000
   0.12500000  0.30844000  0.06250000
   0.37500000  0.30844000  0.06250000
   0.00000000  0.50000000  0.23539000
   0.25000000  0.50000000  0.23539000
   0.00000000  0.00000000  0.11039000
   0.25000000  0.00000000  0.11039000
   0.12500000  0.19156000  0.18750000
   0.37500000  0.19156000  0.18750000
   0.12500000  0.69156000  0.06250000
   0.37500000  0.69156000  0.06250000
   0.00000328  0.50000000  0.39015128
   0.24999151  0.50000000  0.39007305
   0.99999177  0.00000000  0.26417105
   0.25000199  0.00000000  0.26416404
   0.12509087  0.80991002  0.44063705
   0.37493084  0.80988227  0.44063407
   0.12482499  0.30834415  0.31282927
   0.37516860  0.30836300  0.31281841
   0.00005479  0.50000000  0.48495206
   0.24999337  0.50000000  0.48494745
   0.99997014  0.00000000  0.35957356
   0.24998244  0.00000000  0.35960527
   0.12509087  0.19008998  0.44063705
   0.37493084  0.19011773  0.44063407
   0.12482499  0.69165585  0.31282927
   0.37516860  0.69163700  0.31281841
   0.62500000  0.50000000  0.18750000
   0.87500000  0.50000000  0.18750000
   0.62500000  0.00000000  0.06250000
   0.87500000  0.00000000  0.06250000
   0.50000000  0.50000000  0.06250000
   0.75000000  0.50000000  0.06250000
   0.50000000  0.00000000  0.18750000
   0.75000000  0.00000000  0.18750000
   0.62499467  0.50000000  0.43897083
   0.87501796  0.50000000  0.43897314
   0.62500007  0.00000000  0.31211933
   0.87500998  0.00000000  0.31211709
   0.50000833  0.50000000  0.31308939
   0.75000722  0.50000000  0.31304687
   0.50000006  0.00000000  0.43517729
   0.75001583  0.00000000  0.43523195
   0.50000000  0.50000000  0.13961000
   0.75000000  0.50000000  0.13961000
   0.50000000  0.00000000  0.01461000
   0.75000000  0.00000000  0.01461000
   0.62500000  0.80844000  0.18750000
   0.87500000  0.80844000  0.18750000
   0.62500000  0.30844000  0.06250000
   0.87500000  0.30844000  0.06250000
   0.50000000  0.50000000  0.23539000
   0.75000000  0.50000000  0.23539000
   0.50000000  0.00000000  0.11039000
   0.75000000  0.00000000  0.11039000
   0.62500000  0.19156000  0.18750000
   0.87500000  0.19156000  0.18750000
   0.62500000  0.69156000  0.06250000
   0.87500000  0.69156000  0.06250000
   0.49999772  0.50000000  0.39015215
   0.75000997  0.50000000  0.39008087
   0.50000658  0.00000000  0.26418039
   0.74999770  0.00000000  0.26417021
   0.62507139  0.80988793  0.44062207
   0.87492043  0.80989160  0.44062326
   0.62483232  0.30835024  0.31284081
   0.87517731  0.30834886  0.31283868
   0.49995016  0.50000000  0.48495143
   0.50002939  0.00000000  0.35957277
   0.74996796  0.00000000  0.35966710
   0.62507139  0.19011207  0.44062207
   0.87492043  0.19010840  0.44062326
   0.62483232  0.69164976  0.31284081
   0.87517731  0.69165114  0.31283868
 
 position of ions in cartesian coordinates  (Angst):
   1.60106650  3.23512150  4.85268225
   4.80319950  3.23512150  4.85268225
   1.60106650  0.00000000  1.61756075
   4.80319950  0.00000000  1.61756075
   0.00000000  3.23512150  1.61756075
   3.20213300  3.23512150  1.61756075
   0.00000000  0.00000000  4.85268225
   3.20213300  0.00000000  4.85268225
   1.60087129  3.23512150 11.36096807
   4.80324878  3.23512150 11.36102503
   1.60100445  0.00000000  8.07790680
   4.80319322  0.00000000  8.07793098
  12.80853017  3.23512150  8.10301652
   3.20209394  3.23512150  8.10201736
   0.00016134  0.00000000 11.26253249
   3.20211151  0.00000000 11.26414921
   0.00000000  3.23512150  3.61324250
   3.20213300  3.23512150  3.61324250
   0.00000000  0.00000000  0.37812100
   3.20213300  0.00000000  0.37812100
   1.60106650  5.23080325  4.85268225
   4.80319950  5.23080325  4.85268225
   1.60106650  1.99568175  1.61756075
   4.80319950  1.99568175  1.61756075
   0.00000000  3.23512150  6.09212200
   3.20213300  3.23512150  6.09212200
   0.00000000  0.00000000  2.85700050
   3.20213300  0.00000000  2.85700050
   1.60106650  1.23943975  4.85268225
   4.80319950  1.23943975  4.85268225
   1.60106650  4.47456125  1.61756075
   4.80319950  4.47456125  1.61756075
   0.00004196  3.23512150 10.09749447
   3.20202422  3.23512150 10.09546965
  12.80842656  0.00000000  6.83700360
   3.20215851  0.00000000  6.83682202
   1.60223042  5.24031461 11.40411524
   4.80231372  5.24013508 11.40403802
   1.59882488  1.99506158  8.09632554
   4.80535903  1.99518357  8.09604450
   0.00070178  3.23512150 12.55103068
   3.20204808  3.23512150 12.55091143
  12.80814951  0.00000000  9.30611326
   3.20190813  0.00000000  9.30693403
   1.60223042  1.22992839 11.40411524
   4.80231372  1.23010792 11.40403802
   1.59882488  4.47518142  8.09632554
   4.80535903  4.47505943  8.09604450
   8.00533250  3.23512150  4.85268225
  11.20746550  3.23512150  4.85268225
   8.00533250  0.00000000  1.61756075
  11.20746550  0.00000000  1.61756075
   6.40426600  3.23512150  1.61756075
   9.60639900  3.23512150  1.61756075
   6.40426600  0.00000000  4.85268225
   9.60639900  0.00000000  4.85268225
   8.00526424  3.23512150 11.36099178
  11.20769551  3.23512150 11.36105157
   8.00533336  0.00000000  8.07795158
  11.20759336  0.00000000  8.07789376
   6.40437266  3.23512150  8.10305773
   9.60649150  3.23512150  8.10195717
   6.40426677  0.00000000 11.26281138
   9.60660170  0.00000000 11.26422602
   6.40426600  3.23512150  3.61324250
   9.60639900  3.23512150  3.61324250
   6.40426600  0.00000000  0.37812100
   9.60639900  0.00000000  0.37812100
   8.00533250  5.23080325  4.85268225
  11.20746550  5.23080325  4.85268225
   8.00533250  1.99568175  1.61756075
  11.20746550  1.99568175  1.61756075
   6.40426600  3.23512150  6.09212200
   9.60639900  3.23512150  6.09212200
   6.40426600  0.00000000  2.85700050
   9.60639900  0.00000000  2.85700050
   8.00533250  1.23943975  4.85268225
  11.20746550  1.23943975  4.85268225
   8.00533250  4.47456125  1.61756075
  11.20746550  4.47456125  1.61756075
   6.40423680  3.23512150 10.09751688
   9.60652671  3.23512150 10.09567204
   6.40435022  0.00000000  6.83724534
   9.60636948  0.00000000  6.83698183
   8.00624696  5.24017173 11.40372753
  11.20644629  5.24019546 11.40375836
   8.00318479  1.99510101  8.09662426
  11.20973654  1.99509206  8.09656899
   6.40362767  3.23512150 12.55101449
   6.40464238  0.00000000  9.30609279
   9.60598862  0.00000000  9.30853413
   8.00624696  1.23007127 11.40372753
  11.20644629  1.23004754 11.40375836
   8.00318479  4.47514199  8.09662426
  11.20973654  4.47515094  8.09656899
 


--------------------------------------------------------------------------------------------------------


 k-point  1 :   0.0000 0.0000 0.0000  plane waves:   54455
 k-point  2 :   0.3333 0.0000 0.0000  plane waves:   54459
 k-point  3 :   0.0000 0.3333 0.0000  plane waves:   54468
 k-point  4 :   0.3333 0.3333 0.0000  plane waves:   54434

 maximum and minimum number of plane-waves per node :      5497     5417

 maximum number of plane-waves:     54468
 maximum index in each direction: 
   IXMAX=   23   IYMAX=   11   IZMAX=   47
   IXMIN=  -23   IYMIN=  -12   IZMIN=  -47


 real space projection operators:
  total allocation   :      13605.44 KBytes
  max/ min on nodes  :       1364.66       1354.62


 parallel 3D FFT for wavefunctions:
    minimum data exchange during FFTs selected (reduces bandwidth)
 parallel 3D FFT for charge:
    minimum data exchange during FFTs selected (reduces bandwidth)


 total amount of memory used by VASP MPI-rank0   127117. kBytes
=======================================================================

   base      :      30000. kBytes
   nonlr-proj:       5732. kBytes
   fftplans  :       3841. kBytes
   grid      :      10919. kBytes
   one-center:        311. kBytes
   wavefun   :      76314. kBytes
 
     INWAV:  cpu time    0.0000: real time    0.0003
 Broyden mixing: mesh for mixing (old mesh)
   NGX = 47   NGY = 23   NGZ = 95
  (NGX  =140   NGY  = 72   NGZ  =288)
  gives a total of 102695 points

 initial charge density was supplied:
 charge density of overlapping atoms calculated
 number of electron     666.0000000 magnetization      57.0000000
 keeping initial charge density in first step


--------------------------------------------------------------------------------------------------------


 Maximum index for non-local projection operator          278
 Maximum index for augmentation-charges          641 (set IRDMAX)


--------------------------------------------------------------------------------------------------------


 First call to EWALD:  gamma=   0.137
 Maximum number of real-space cells 3x 5x 2
 Maximum number of reciprocal cells 3x 2x 5

    FEWALD:  cpu time    0.0036: real time    0.0037


--------------------------------------- Iteration      1(   1)  ---------------------------------------


    POTLOK:  cpu time    0.0892: real time    0.0964
    SETDIJ:  cpu time    0.0162: real time    0.0183
     EDDAV:  cpu time   12.3567: real time   12.4184
       DOS:  cpu time    0.0024: real time    0.0030
    --------------------------------------------
      LOOP:  cpu time   12.4645: real time   12.5361

 eigenvalue-minimisations  :  6888
 total energy-change (2. order) : 0.7466366E+04  (-0.2965946E+05)
 number of electron     666.0000000 magnetization      57.0000000
 augmentation part      666.0000000 magnetization      57.0000000

 DIPCOR: dipole corrections for dipol
 direction  3 min pos   217,
 dipolmoment           0.000000      0.000000      0.000002 electrons x Angstroem
 Tr[quadrupol]    -12380.446028

 energy correction for charged system         0.000000 eV
 dipol+quadrupol energy correction           -0.000000 eV
 added-field ion interaction          0.000007 eV  (added to PSCEN)


 Free energy of the ion-electron system (eV)
  ---------------------------------------------------
  alpha Z        PSCENC =      1711.88723923
  Ewald energy   TEWEN  =    231616.13415946
  -Hartree energ DENC   =   -276309.55123360
  -exchange      EXHF   =         0.00000000
  -V(xc)+E(xc)   XCENC  =      1175.22488577
  PAW double counting   =     39514.82181350   -38290.94490498
  entropy T*S    EENTRO =        -0.05201276
  eigenvalues    EBANDS =      2912.26945522
  atomic energy  EATOM  =     45136.57697952
  Solvation  Ediel_sol  =         0.00000000
  ---------------------------------------------------
  free energy    TOTEN  =      7466.36638136 eV

  energy without entropy =     7466.41839412  energy(sigma->0) =     7466.39238774


--------------------------------------------------------------------------------------------------------




--------------------------------------- Iteration      1(   2)  ---------------------------------------


     EDDAV:  cpu time   12.7998: real time   12.8451
       DOS:  cpu time    0.0022: real time    0.0022
    --------------------------------------------
      LOOP:  cpu time   12.8019: real time   12.8473

 eigenvalue-minimisations  :  7208
 total energy-change (2. order) :-0.6918162E+04  (-0.6346594E+04)
 number of electron     666.0000000 magnetization      57.0000000
 augmentation part      666.0000000 magnetization      57.0000000

 DIPCOR: dipole corrections for dipol
 direction  3 min pos   217,
 dipolmoment           0.000000      0.000000      0.000002 electrons x Angstroem
 Tr[quadrupol]    -12380.446028

 energy correction for charged system         0.000000 eV
 dipol+quadrupol energy correction           -0.000000 eV
 added-field ion interaction          0.000007 eV  (added to PSCEN)


 Free energy of the ion-electron system (eV)
  ---------------------------------------------------
  alpha Z        PSCENC =      1711.88723923
  Ewald energy   TEWEN  =    231616.13415946
  -Hartree energ DENC   =   -276309.55123360
  -exchange      EXHF   =         0.00000000
  -V(xc)+E(xc)   XCENC  =      1175.22488577
  PAW double counting   =     39514.82181350   -38290.94490498
  entropy T*S    EENTRO =        -0.03556503
  eigenvalues    EBANDS =     -4005.90883672
  atomic energy  EATOM  =     45136.57697952
  Solvation  Ediel_sol  =         0.00000000
  ---------------------------------------------------
  free energy    TOTEN  =       548.20453715 eV

  energy without entropy =      548.24010218  energy(sigma->0) =      548.22231967


--------------------------------------------------------------------------------------------------------




--------------------------------------- Iteration      1(   3)  ---------------------------------------


     EDDAV:  cpu time   14.7843: real time   14.8302
       DOS:  cpu time    0.0021: real time    0.0021
    --------------------------------------------
      LOOP:  cpu time   14.7865: real time   14.8323

 eigenvalue-minimisations  :  8664
 total energy-change (2. order) :-0.1204793E+04  (-0.1149880E+04)
 number of electron     666.0000000 magnetization      57.0000000
 augmentation part      666.0000000 magnetization      57.0000000

 DIPCOR: dipole corrections for dipol
 direction  3 min pos   217,
 dipolmoment           0.000000      0.000000      0.000002 electrons x Angstroem
 Tr[quadrupol]    -12380.446028

 energy correction for charged system         0.000000 eV
 dipol+quadrupol energy correction           -0.000000 eV
 added-field ion interaction          0.000007 eV  (added to PSCEN)


 Free energy of the ion-electron system (eV)
  ---------------------------------------------------
  alpha Z        PSCENC =      1711.88723923
  Ewald energy   TEWEN  =    231616.13415946
  -Hartree energ DENC   =   -276309.55123360
  -exchange      EXHF   =         0.00000000
  -V(xc)+E(xc)   XCENC  =      1175.22488577
  PAW double counting   =     39514.82181350   -38290.94490498
  entropy T*S    EENTRO =        -0.09791294
  eigenvalues    EBANDS =     -5210.63910425
  atomic energy  EATOM  =     45136.57697952
  Solvation  Ediel_sol  =         0.00000000
  ---------------------------------------------------
  free energy    TOTEN  =      -656.58807829 eV

  energy without entropy =     -656.49016534  energy(sigma->0) =     -656.53912181


--------------------------------------------------------------------------------------------------------




--------------------------------------- Iteration      1(   4)  ---------------------------------------


     EDDAV:  cpu time   14.9985: real time   15.0611
       DOS:  cpu time    0.0022: real time    0.0022
    --------------------------------------------
      LOOP:  cpu time   15.0007: real time   15.0633

 eigenvalue-minimisations  :  8792
 total energy-change (2. order) :-0.7126628E+02  (-0.6891240E+02)
 number of electron     666.0000000 magnetization      57.0000000
 augmentation part      666.0000000 magnetization      57.0000000

 DIPCOR: dipole corrections for dipol
 direction  3 min pos   217,
 dipolmoment           0.000000      0.000000      0.000002 electrons x Angstroem
 Tr[quadrupol]    -12380.446028

 energy correction for charged system         0.000000 eV
 dipol+quadrupol energy correction           -0.000000 eV
 added-field ion interaction          0.000007 eV  (added to PSCEN)


 Free energy of the ion-electron system (eV)
  ---------------------------------------------------
  alpha Z        PSCENC =      1711.88723923
  Ewald energy   TEWEN  =    231616.13415946
  -Hartree energ DENC   =   -276309.55123360
  -exchange      EXHF   =         0.00000000
  -V(xc)+E(xc)   XCENC  =      1175.22488577
  PAW double counting   =     39514.82181350   -38290.94490498
  entropy T*S    EENTRO =        -0.09716227
  eigenvalues    EBANDS =     -5281.90613452
  atomic energy  EATOM  =     45136.57697952
  Solvation  Ediel_sol  =         0.00000000
  ---------------------------------------------------
  free energy    TOTEN  =      -727.85435788 eV

  energy without entropy =     -727.75719561  energy(sigma->0) =     -727.80577674


--------------------------------------------------------------------------------------------------------




--------------------------------------- Iteration      1(   5)  ---------------------------------------


     EDDAV:  cpu time   14.9630: real time   15.0024
       DOS:  cpu time    0.0022: real time    0.0021
    CHARGE:  cpu time    0.3003: real time    0.3016
    MIXING:  cpu time    0.0026: real time    0.0039
    --------------------------------------------
      LOOP:  cpu time   15.2681: real time   15.3100

 eigenvalue-minimisations  :  8800
 total energy-change (2. order) :-0.2271229E+01  (-0.2235527E+01)
 number of electron     666.0000372 magnetization      53.3658875
 augmentation part      118.0659581 magnetization      43.9351113

 DIPCOR: dipole corrections for dipol
 direction  3 min pos   217,
 dipolmoment           0.000000      0.000000      0.000002 electrons x Angstroem
 Tr[quadrupol]    -12380.446028

 energy correction for charged system         0.000000 eV
 dipol+quadrupol energy correction           -0.000000 eV
 added-field ion interaction          0.000007 eV  (added to PSCEN)


 Broyden mixing:
  rms(total) = 0.16922E+02    rms(broyden)= 0.16921E+02
  rms(prec ) = 0.17126E+02
  weight for this iteration     100.00

 Free energy of the ion-electron system (eV)
  ---------------------------------------------------
  alpha Z        PSCENC =      1711.88723923
  Ewald energy   TEWEN  =    231616.13415946
  -Hartree energ DENC   =   -276309.55123360
  -exchange      EXHF   =         0.00000000
  -V(xc)+E(xc)   XCENC  =      1175.22488577
  PAW double counting   =     39514.82181350   -38290.94490498
  entropy T*S    EENTRO =        -0.09664616
  eigenvalues    EBANDS =     -5284.17787975
  atomic energy  EATOM  =     45136.57697952
  Solvation  Ediel_sol  =         0.00000000
  ---------------------------------------------------
  free energy    TOTEN  =      -730.12558700 eV

  energy without entropy =     -730.02894084  energy(sigma->0) =     -730.07726392


--------------------------------------------------------------------------------------------------------




--------------------------------------- Iteration      1(   6)  ---------------------------------------


    POTLOK:  cpu time    0.0809: real time    0.0831
    SETDIJ:  cpu time    0.0151: real time    0.0152
    EDDIAG:  cpu time    1.6994: real time    1.7053
  RMM-DIIS:  cpu time    4.7922: real time    4.8045
    ORTHCH:  cpu time    0.5170: real time    0.5184
       DOS:  cpu time    0.0021: real time    0.0021
    CHARGE:  cpu time    0.3129: real time    0.3136
    MIXING:  cpu time    0.0028: real time    0.0029
    --------------------------------------------
      LOOP:  cpu time    7.4224: real time    7.4451

 eigenvalue-minimisations  :  6902
 total energy-change (2. order) : 0.1225763E+03  (-0.6599803E+02)
 number of electron     666.0000350 magnetization      50.2042446
 augmentation part      126.0661167 magnetization      36.9851133

 DIPCOR: dipole corrections for dipol
 direction  3 min pos   217,
 dipolmoment           0.000000      0.000000     -0.456632 electrons x Angstroem
 Tr[quadrupol]    -12375.411410

 energy correction for charged system         0.000000 eV
 dipol+quadrupol energy correction           -0.008797 eV
 added-field ion interaction         -1.290841 eV  (added to PSCEN)


 Broyden mixing:
  rms(total) = 0.10119E+02    rms(broyden)= 0.10117E+02
  rms(prec ) = 0.10479E+02
  weight for this iteration     100.00

 eigenvalues of (default mixing * dielectric matrix)
  average eigenvalue GAMMA=   1.0249
  1.0249

 Free energy of the ion-electron system (eV)
  ---------------------------------------------------
  alpha Z        PSCENC =      1710.58759445
  Ewald energy   TEWEN  =    231616.13415946
  -Hartree energ DENC   =   -276751.31780838
  -exchange      EXHF   =         0.00000000
  -V(xc)+E(xc)   XCENC  =      1248.53598833
  PAW double counting   =     47224.59047139   -46062.81539264
  entropy T*S    EENTRO =        -0.06028058
  eigenvalues    EBANDS =     -4729.78103971
  atomic energy  EATOM  =     45136.57697952
  Solvation  Ediel_sol  =         0.00000000
  ---------------------------------------------------
  free energy    TOTEN  =      -607.54932815 eV

  energy without entropy =     -607.48904758  energy(sigma->0) =     -607.51918786


--------------------------------------------------------------------------------------------------------




--------------------------------------- Iteration      1(   7)  ---------------------------------------


    POTLOK:  cpu time    0.0799: real time    0.0803
    SETDIJ:  cpu time    0.0151: real time    0.0152
    EDDIAG:  cpu time    1.6981: real time    1.7024
  RMM-DIIS:  cpu time    5.0776: real time    5.0907
    ORTHCH:  cpu time    0.5169: real time    0.5184
       DOS:  cpu time    0.0019: real time    0.0020
    CHARGE:  cpu time    0.3024: real time    0.3031
    MIXING:  cpu time    0.0026: real time    0.0026
    --------------------------------------------
      LOOP:  cpu time    7.6947: real time    7.7147

 eigenvalue-minimisations  :  7383
 total energy-change (2. order) :-0.6504753E+03  (-0.4204049E+02)
 number of electron     666.0000408 magnetization      50.0230565
 augmentation part      121.2894065 magnetization      42.6812361

 DIPCOR: dipole corrections for dipol
 direction  3 min pos   217,
 dipolmoment           0.000000      0.000000      7.375914 electrons x Angstroem
 Tr[quadrupol]    -12400.874868

 energy correction for charged system         0.000000 eV
 dipol+quadrupol energy correction           -2.295290 eV
 added-field ion interaction         20.850791 eV  (added to PSCEN)


 Broyden mixing:
  rms(total) = 0.32187E+02    rms(broyden)= 0.32186E+02
  rms(prec ) = 0.37294E+02
  weight for this iteration     100.00

 eigenvalues of (default mixing * dielectric matrix)
  average eigenvalue GAMMA=   0.5113
  1.0060  0.0166

 Free energy of the ion-electron system (eV)
  ---------------------------------------------------
  alpha Z        PSCENC =      1730.44273287
  Ewald energy   TEWEN  =    231616.13415946
  -Hartree energ DENC   =   -277121.08049241
  -exchange      EXHF   =         0.00000000
  -V(xc)+E(xc)   XCENC  =      1222.76287218
  PAW double counting   =     52698.90829990   -51546.07183694
  entropy T*S    EENTRO =        -0.05599998
  eigenvalues    EBANDS =     -4995.64130881
  atomic energy  EATOM  =     45136.57697952
  Solvation  Ediel_sol  =         0.00000000
  ---------------------------------------------------
  free energy    TOTEN  =     -1258.02459420 eV

  energy without entropy =    -1257.96859422  energy(sigma->0) =    -1257.99659421


--------------------------------------------------------------------------------------------------------




--------------------------------------- Iteration      1(   8)  ---------------------------------------


    POTLOK:  cpu time    0.0818: real time    0.0889
    SETDIJ:  cpu time    0.0154: real time    0.0154
    EDDIAG:  cpu time    1.7005: real time    1.7050
  RMM-DIIS:  cpu time    5.1025: real time    5.1157
    ORTHCH:  cpu time    0.5165: real time    0.5178
       DOS:  cpu time    0.0020: real time    0.0020
    CHARGE:  cpu time    0.3006: real time    0.3014
    MIXING:  cpu time    0.0029: real time    0.0046
    --------------------------------------------
      LOOP:  cpu time    7.7222: real time    7.7506

 eigenvalue-minimisations  :  7382
 total energy-change (2. order) : 0.1891954E+03  (-0.4919327E+01)
 number of electron     666.0000394 magnetization      49.2999330
 augmentation part      118.5699569 magnetization      41.8331061

 DIPCOR: dipole corrections for dipol
 direction  3 min pos   217,
 dipolmoment           0.000000      0.000000      5.941308 electrons x Angstroem
 Tr[quadrupol]    -12401.202884

 energy correction for charged system         0.000000 eV
 dipol+quadrupol energy correction           -1.489258 eV
 added-field ion interaction         16.795338 eV  (added to PSCEN)


 Broyden mixing:
  rms(total) = 0.24724E+02    rms(broyden)= 0.24724E+02
  rms(prec ) = 0.29660E+02
  weight for this iteration     100.00

 eigenvalues of (default mixing * dielectric matrix)
  average eigenvalue GAMMA=   0.4322
  1.0445  0.1260  0.1260

 Free energy of the ion-electron system (eV)
  ---------------------------------------------------
  alpha Z        PSCENC =      1727.19331172
  Ewald energy   TEWEN  =    231616.13415946
  -Hartree energ DENC   =   -277122.24076704
  -exchange      EXHF   =         0.00000000
  -V(xc)+E(xc)   XCENC  =      1222.73301982
  PAW double counting   =     53094.02612533   -51940.02678234
  entropy T*S    EENTRO =        -0.06119049
  eigenvalues    EBANDS =     -4803.16407265
  atomic energy  EATOM  =     45136.57697952
  Solvation  Ediel_sol  =         0.00000000
  ---------------------------------------------------
  free energy    TOTEN  =     -1068.82921666 eV

  energy without entropy =    -1068.76802617  energy(sigma->0) =    -1068.79862141


--------------------------------------------------------------------------------------------------------




--------------------------------------- Iteration      1(   9)  ---------------------------------------


    POTLOK:  cpu time    0.0804: real time    0.0808
    SETDIJ:  cpu time    0.0150: real time    0.0151
    EDDIAG:  cpu time    1.6998: real time    1.7043
  RMM-DIIS:  cpu time    4.7623: real time    4.7747
    ORTHCH:  cpu time    0.5168: real time    0.5181
       DOS:  cpu time    0.0019: real time    0.0019
    CHARGE:  cpu time    0.3008: real time    0.3016
    MIXING:  cpu time    0.0028: real time    0.0028
    --------------------------------------------
      LOOP:  cpu time    7.3800: real time    7.3994

 eigenvalue-minimisations  :  6859
 total energy-change (2. order) : 0.4369569E+03  (-0.8567565E+01)
 number of electron     666.0000405 magnetization      46.1240929
 augmentation part      123.1983467 magnetization      38.9313413

 DIPCOR: dipole corrections for dipol
 direction  3 min pos   217,
 dipolmoment           0.000000      0.000000     -0.439351 electrons x Angstroem
 Tr[quadrupol]    -12368.741040

 energy correction for charged system         0.000000 eV
 dipol+quadrupol energy correction           -0.008144 eV
 added-field ion interaction         -1.241992 eV  (added to PSCEN)


 Broyden mixing:
  rms(total) = 0.94689E+01    rms(broyden)= 0.94671E+01
  rms(prec ) = 0.99330E+01
  weight for this iteration     100.00

 eigenvalues of (default mixing * dielectric matrix)
  average eigenvalue GAMMA=   0.5545
  1.4814  0.4798  0.1284  0.1284

 Free energy of the ion-electron system (eV)
  ---------------------------------------------------
  alpha Z        PSCENC =      1710.63709662
  Ewald energy   TEWEN  =    231616.13415946
  -Hartree energ DENC   =   -276405.87059360
  -exchange      EXHF   =         0.00000000
  -V(xc)+E(xc)   XCENC  =      1230.60418791
  PAW double counting   =     53023.77368451   -51875.54519796
  entropy T*S    EENTRO =        -0.06446614
  eigenvalues    EBANDS =     -5068.11816202
  atomic energy  EATOM  =     45136.57697952
  Solvation  Ediel_sol  =         0.00000000
  ---------------------------------------------------
  free energy    TOTEN  =      -631.87231169 eV

  energy without entropy =     -631.80784556  energy(sigma->0) =     -631.84007863


--------------------------------------------------------------------------------------------------------




--------------------------------------- Iteration      1(  10)  ---------------------------------------


    POTLOK:  cpu time    0.0804: real time    0.0808
    SETDIJ:  cpu time    0.0151: real time    0.0151
    EDDIAG:  cpu time    1.6979: real time    1.7023
  RMM-DIIS:  cpu time    4.7911: real time    4.8033
    ORTHCH:  cpu time    0.5169: real time    0.5183
       DOS:  cpu time    0.0021: real time    0.0021
    CHARGE:  cpu time    0.3172: real time    0.3180
    MIXING:  cpu time    0.0031: real time    0.0031
    --------------------------------------------
      LOOP:  cpu time    7.4238: real time    7.4430

 eigenvalue-minimisations  :  6862
 total energy-change (2. order) :-0.2072478E+02  (-0.1071428E+02)
 number of electron     666.0000407 magnetization      44.6893820
 augmentation part      123.4581431 magnetization      39.0557930

 DIPCOR: dipole corrections for dipol
 direction  3 min pos   217,
 dipolmoment           0.000000      0.000000      0.614800 electrons x Angstroem
 Tr[quadrupol]    -12372.266163

 energy correction for charged system         0.000000 eV
 dipol+quadrupol energy correction           -0.015947 eV
 added-field ion interaction          1.737964 eV  (added to PSCEN)


 Broyden mixing:
  rms(total) = 0.13820E+02    rms(broyden)= 0.13819E+02
  rms(prec ) = 0.15284E+02
  weight for this iteration     100.00

 eigenvalues of (default mixing * dielectric matrix)
  average eigenvalue GAMMA=   0.5102
  1.5795  0.5149  0.2273  0.1147  0.1147

 Free energy of the ion-electron system (eV)
  ---------------------------------------------------
  alpha Z        PSCENC =      1713.60924956
  Ewald energy   TEWEN  =    231616.13415946
  -Hartree energ DENC   =   -276540.60949334
  -exchange      EXHF   =         0.00000000
  -V(xc)+E(xc)   XCENC  =      1234.09401980
  PAW double counting   =     56009.13823296   -54877.98666923
  entropy T*S    EENTRO =        -0.05818591
  eigenvalues    EBANDS =     -4943.49538678
  atomic energy  EATOM  =     45136.57697952
  Solvation  Ediel_sol  =         0.00000000
  ---------------------------------------------------
  free energy    TOTEN  =      -652.59709395 eV

  energy without entropy =     -652.53890804  energy(sigma->0) =     -652.56800099


--------------------------------------------------------------------------------------------------------




--------------------------------------- Iteration      1(  11)  ---------------------------------------


    POTLOK:  cpu time    0.0806: real time    0.0810
    SETDIJ:  cpu time    0.0150: real time    0.0151
    EDDIAG:  cpu time    1.6988: real time    1.7032
  RMM-DIIS:  cpu time    5.0184: real time    5.0314
    ORTHCH:  cpu time    0.5187: real time    0.5199
       DOS:  cpu time    0.0020: real time    0.0020
    CHARGE:  cpu time    0.3012: real time    0.3020
    MIXING:  cpu time    0.0032: real time    0.0032
    --------------------------------------------
      LOOP:  cpu time    7.6380: real time    7.6579

 eigenvalue-minimisations  :  7277
 total energy-change (2. order) : 0.4594832E+02  (-0.1425847E+01)
 number of electron     666.0000366 magnetization      43.1471686
 augmentation part      123.0775968 magnetization      36.1094442

 DIPCOR: dipole corrections for dipol
 direction  3 min pos   217,
 dipolmoment           0.000000      0.000000     -0.417851 electrons x Angstroem
 Tr[quadrupol]    -12371.253196

 energy correction for charged system         0.000000 eV
 dipol+quadrupol energy correction           -0.007366 eV
 added-field ion interaction         -1.181213 eV  (added to PSCEN)


 Broyden mixing:
  rms(total) = 0.92696E+01    rms(broyden)= 0.92690E+01
  rms(prec ) = 0.96492E+01
  weight for this iteration     100.00

 eigenvalues of (default mixing * dielectric matrix)
  average eigenvalue GAMMA=   0.5549
  1.7672  0.5468  0.3893  0.3893  0.1183  0.1183

 Free energy of the ion-electron system (eV)
  ---------------------------------------------------
  alpha Z        PSCENC =      1710.69865286
  Ewald energy   TEWEN  =    231616.13415946
  -Hartree energ DENC   =   -276518.57559911
  -exchange      EXHF   =         0.00000000
  -V(xc)+E(xc)   XCENC  =      1234.98551746
  PAW double counting   =     56837.26258676   -55709.69970040
  entropy T*S    EENTRO =        -0.07651703
  eigenvalues    EBANDS =     -4913.95485601
  atomic energy  EATOM  =     45136.57697952
  Solvation  Ediel_sol  =         0.00000000
  ---------------------------------------------------
  free energy    TOTEN  =      -606.64877648 eV

  energy without entropy =     -606.57225945  energy(sigma->0) =     -606.61051797


--------------------------------------------------------------------------------------------------------




--------------------------------------- Iteration      1(  12)  ---------------------------------------


    POTLOK:  cpu time    0.0806: real time    0.0810
    SETDIJ:  cpu time    0.0151: real time    0.0152
    EDDIAG:  cpu time    1.6996: real time    1.7041
  RMM-DIIS:  cpu time    4.8257: real time    4.8381
    ORTHCH:  cpu time    0.5192: real time    0.5205
       DOS:  cpu time    0.0020: real time    0.0020
    CHARGE:  cpu time    0.2918: real time    0.2925
    MIXING:  cpu time    0.0034: real time    0.0035
    --------------------------------------------
      LOOP:  cpu time    7.4374: real time    7.4569

 eigenvalue-minimisations  :  6849
 total energy-change (2. order) :-0.5280976E+02  (-0.1994987E+01)
 number of electron     666.0000426 magnetization      41.2958601
 augmentation part      124.7510442 magnetization      35.4226976

 DIPCOR: dipole corrections for dipol
 direction  3 min pos   217,
 dipolmoment           0.000000      0.000000      0.865007 electrons x Angstroem
 Tr[quadrupol]    -12363.229593

 energy correction for charged system         0.000000 eV
 dipol+quadrupol energy correction           -0.031568 eV
 added-field ion interaction          2.445266 eV  (added to PSCEN)


 Broyden mixing:
  rms(total) = 0.93074E+01    rms(broyden)= 0.93064E+01
  rms(prec ) = 0.11999E+02
  weight for this iteration     100.00

 eigenvalues of (default mixing * dielectric matrix)
  average eigenvalue GAMMA=   0.5461
  1.8561  0.5924  0.4073  0.4073  0.3243  0.1178  0.1178

 Free energy of the ion-electron system (eV)
  ---------------------------------------------------
  alpha Z        PSCENC =      1714.30093010
  Ewald energy   TEWEN  =    231616.13415946
  -Hartree energ DENC   =   -276318.03089891
  -exchange      EXHF   =         0.00000000
  -V(xc)+E(xc)   XCENC  =      1234.71828675
  PAW double counting   =     57769.37999160   -56645.90741579
  entropy T*S    EENTRO =        -0.04458385
  eigenvalues    EBANDS =     -5166.58598661
  atomic energy  EATOM  =     45136.57697952
  Solvation  Ediel_sol  =         0.00000000
  ---------------------------------------------------
  free energy    TOTEN  =      -659.45853773 eV

  energy without entropy =     -659.41395387  energy(sigma->0) =     -659.43624580


--------------------------------------------------------------------------------------------------------




--------------------------------------- Iteration      1(  13)  ---------------------------------------


    POTLOK:  cpu time    0.0800: real time    0.0805
    SETDIJ:  cpu time    0.0151: real time    0.0151
    EDDIAG:  cpu time    1.7033: real time    1.7077
  RMM-DIIS:  cpu time    4.7695: real time    4.8003
    ORTHCH:  cpu time    0.5190: real time    0.5202
       DOS:  cpu time    0.0020: real time    0.0021
    CHARGE:  cpu time    0.3018: real time    0.3026
    MIXING:  cpu time    0.0035: real time    0.0035
    --------------------------------------------
      LOOP:  cpu time    7.3943: real time    7.4319

 eigenvalue-minimisations  :  6870
 total energy-change (2. order) : 0.4932347E+02  (-0.2440644E+01)
 number of electron     666.0000339 magnetization      39.2673793
 augmentation part      123.2913944 magnetization      31.0251237

 DIPCOR: dipole corrections for dipol
 direction  3 min pos   217,
 dipolmoment           0.000000      0.000000     -2.243887 electrons x Angstroem
 Tr[quadrupol]    -12370.884152

 energy correction for charged system         0.000000 eV
 dipol+quadrupol energy correction           -0.212426 eV
 added-field ion interaction         -6.343189 eV  (added to PSCEN)


 Broyden mixing:
  rms(total) = 0.76020E+01    rms(broyden)= 0.75989E+01
  rms(prec ) = 0.89282E+01
  weight for this iteration     100.00

 eigenvalues of (default mixing * dielectric matrix)
  average eigenvalue GAMMA=   0.5589
  2.2375  0.7209  0.3813  0.3813  0.3645  0.1183  0.1183  0.1495

 Free energy of the ion-electron system (eV)
  ---------------------------------------------------
  alpha Z        PSCENC =      1705.33161730
  Ewald energy   TEWEN  =    231616.13415946
  -Hartree energ DENC   =   -276522.48935931
  -exchange      EXHF   =         0.00000000
  -V(xc)+E(xc)   XCENC  =      1233.96804953
  PAW double counting   =     58122.22584428   -57001.25051312
  entropy T*S    EENTRO =        -0.06787642
  eigenvalues    EBANDS =     -4900.56396824
  atomic energy  EATOM  =     45136.57697952
  Solvation  Ediel_sol  =         0.00000000
  ---------------------------------------------------
  free energy    TOTEN  =      -610.13506701 eV

  energy without entropy =     -610.06719059  energy(sigma->0) =     -610.10112880


--------------------------------------------------------------------------------------------------------




--------------------------------------- Iteration      1(  14)  ---------------------------------------


    POTLOK:  cpu time    0.0805: real time    0.0817
    SETDIJ:  cpu time    0.0152: real time    0.0152
    EDDIAG:  cpu time    1.6997: real time    1.7041
  RMM-DIIS:  cpu time    4.8014: real time    4.8137
    ORTHCH:  cpu time    0.5188: real time    0.5202
       DOS:  cpu time    0.0020: real time    0.0020
    CHARGE:  cpu time    0.3170: real time    0.3178
    MIXING:  cpu time    0.0039: real time    0.0039
[...]
   -.190E+01 -.349E+02 0.533E+03   0.192E+01 0.366E+02 -.533E+03   0.503E-01 -.169E+01 0.572E-01   -.161E-01 0.978E-02 0.766E-01
   0.448E+00 0.363E+01 0.164E+04   -.466E+00 -.177E+01 -.164E+04   -.499E-01 -.182E+01 -.541E+00   0.139E-01 0.448E-02 0.216E-01
   -.444E+00 0.364E+01 0.164E+04   0.461E+00 -.177E+01 -.164E+04   0.499E-01 -.182E+01 -.541E+00   -.124E-01 0.439E-02 0.227E-01
   0.320E+02 0.111E-11 -.121E+04   -.311E+02 0.178E-13 0.121E+04   -.899E+00 0.000E+00 -.128E+01   0.492E-01 0.998E-13 0.560E-01
   0.188E-01 0.137E-11 -.119E+04   -.120E-01 0.131E-13 0.119E+04   -.634E-02 0.000E+00 -.540E+00   0.883E-03 0.102E-13 0.521E-01
   0.669E+01 0.176E-13 -.119E+03   -.672E+01 0.355E-14 0.117E+03   0.408E-02 0.000E+00 0.184E+01   0.351E-01 0.233E-12 0.829E-01
   0.155E-01 0.571E-12 -.115E+03   -.211E-01 -.235E-13 0.113E+03   0.327E-02 0.000E+00 0.179E+01   0.185E-02 0.165E-12 0.957E-01
   0.161E+02 -.356E+01 -.168E+04   -.164E+02 0.187E+01 0.169E+04   0.283E+00 0.169E+01 -.514E+01   0.293E-01 0.141E-02 0.301E-02
   -.160E+02 -.363E+01 -.168E+04   0.163E+02 0.195E+01 0.169E+04   -.266E+00 0.169E+01 -.515E+01   -.283E-01 -.597E-03 0.189E-02
   0.605E+01 0.330E+02 -.568E+03   -.601E+01 -.346E+02 0.568E+03   -.844E-01 0.161E+01 0.151E+00   0.256E-01 -.283E-02 0.691E-01
   -.602E+01 0.330E+02 -.569E+03   0.597E+01 -.346E+02 0.568E+03   0.836E-01 0.162E+01 0.131E+00   -.212E-01 -.448E-03 0.681E-01
   0.489E+02 0.142E-11 -.202E+04   -.488E+02 -.124E-13 0.205E+04   -.147E+00 0.000E+00 -.277E+02   0.407E-01 0.890E-13 -.102E-01
   0.378E-01 0.545E-12 -.202E+04   -.423E-01 -.272E-14 0.205E+04   -.119E-01 0.000E+00 -.279E+02   0.178E-02 -.696E-13 -.477E-01
   0.153E+02 0.510E-12 -.103E+04   -.152E+02 0.142E-13 0.103E+04   -.128E+00 0.000E+00 0.177E+01   0.524E-01 -.133E-12 0.837E-01
   0.276E-01 0.177E-11 -.102E+04   -.309E-01 -.133E-14 0.102E+04   0.195E-02 0.000E+00 0.234E+01   0.124E-02 0.152E-14 0.800E-01
   0.161E+02 0.356E+01 -.168E+04   -.164E+02 -.187E+01 0.169E+04   0.283E+00 -.169E+01 -.514E+01   0.293E-01 -.141E-02 0.301E-02
   -.160E+02 0.363E+01 -.168E+04   0.163E+02 -.195E+01 0.169E+04   -.266E+00 -.169E+01 -.515E+01   -.283E-01 0.597E-03 0.189E-02
   0.605E+01 -.330E+02 -.568E+03   -.601E+01 0.346E+02 0.568E+03   -.844E-01 -.161E+01 0.151E+00   0.256E-01 0.283E-02 0.691E-01
   -.602E+01 -.330E+02 -.569E+03   0.597E+01 0.346E+02 0.568E+03   0.836E-01 -.162E+01 0.131E+00   -.212E-01 0.448E-03 0.681E-01
   -.365E+01 0.913E-12 0.796E+03   0.375E+01 -.937E-13 -.795E+03   -.367E-01 0.000E+00 -.677E+00   -.352E-01 -.297E-12 0.108E+00
   0.362E+01 -.112E-11 0.796E+03   -.372E+01 -.870E-13 -.795E+03   0.367E-01 0.000E+00 -.677E+00   0.296E-01 -.391E-12 0.107E+00
   -.693E+00 0.535E-12 0.241E+04   0.714E+00 -.883E-13 -.241E+04   0.218E-03 0.000E+00 0.145E+01   -.262E-01 0.447E-13 0.154E-01
   0.687E+00 -.827E-12 0.241E+04   -.706E+00 -.844E-13 -.241E+04   -.206E-03 0.000E+00 0.145E+01   0.239E-01 0.494E-13 0.135E-01
   -.972E+00 0.157E-11 0.256E+04   0.100E+01 0.229E-14 -.256E+04   -.162E-01 0.000E+00 -.260E+01   -.285E-01 -.140E-12 0.279E-01
   -.441E-02 -.116E-11 0.256E+04   0.584E-02 0.723E-13 -.256E+04   0.239E-04 0.000E+00 -.245E+01   -.146E-02 0.920E-14 0.144E-01
   -.413E+01 0.491E-12 0.797E+03   0.418E+01 0.910E-14 -.798E+03   0.977E-02 0.000E+00 0.682E-01   -.459E-01 0.346E-12 0.110E+00
   -.333E-01 0.127E-11 0.793E+03   0.369E-01 -.266E-13 -.793E+03   0.460E-04 0.000E+00 0.561E-01   -.347E-02 0.239E-12 0.103E+00
   -.155E+03 -.572E-12 -.252E+04   0.153E+03 -.169E-13 0.252E+04   0.204E+01 0.000E+00 -.112E-01   -.520E-01 0.492E-12 0.232E-01
   0.154E+03 0.109E-11 -.252E+04   -.152E+03 -.533E-13 0.252E+04   -.204E+01 0.000E+00 -.151E-01   0.485E-01 0.118E-12 0.228E-01
   -.125E+02 -.238E-12 -.869E+03   0.125E+02 0.426E-13 0.869E+03   0.147E-01 0.000E+00 0.479E+00   -.312E-01 -.203E-13 0.904E-01
   0.125E+02 0.278E-12 -.870E+03   -.126E+02 -.284E-13 0.869E+03   -.221E-01 0.000E+00 0.476E+00   0.256E-01 0.116E-12 0.918E-01
   -.189E+02 0.825E-12 -.859E+03   0.189E+02 -.324E-13 0.859E+03   0.106E+00 0.000E+00 -.190E+00   -.659E-01 0.843E-13 0.974E-01
   -.806E-02 -.256E-11 -.895E+03   0.109E-01 0.426E-13 0.895E+03   -.183E-02 0.000E+00 -.113E+00   -.312E-02 -.975E-13 0.737E-01
   -.398E+02 -.118E-11 -.253E+04   0.398E+02 -.498E-13 0.253E+04   0.957E-01 0.000E+00 0.328E+01   -.597E-01 -.237E-12 0.801E-02
   0.102E+00 0.739E-12 -.255E+04   -.102E+00 0.249E-13 0.255E+04   -.289E-02 0.000E+00 0.329E+01   -.340E-02 -.291E-12 0.104E-01
   -.164E+01 -.353E-11 0.999E+03   0.170E+01 -.278E-13 -.997E+03   -.968E-02 0.000E+00 -.168E+01   -.310E-01 -.266E-12 0.735E-01
   -.892E-02 0.134E-11 0.996E+03   0.112E-01 -.169E-13 -.995E+03   -.342E-03 0.000E+00 -.123E+01   -.212E-02 -.264E-12 0.657E-01
   -.415E+00 -.923E-12 0.202E+04   0.425E+00 -.133E-14 -.205E+04   -.228E-02 0.000E+00 0.277E+02   -.174E-01 0.226E-13 -.232E-01
   -.173E-02 -.186E-11 0.202E+04   0.212E-02 0.106E-13 -.205E+04   0.199E-03 0.000E+00 0.277E+02   -.529E-03 -.208E-12 -.351E-01
   -.223E+01 0.353E+02 0.529E+03   0.227E+01 -.370E+02 -.529E+03   -.638E-01 0.170E+01 0.614E-01   -.285E-01 -.648E-02 0.710E-01
   0.221E+01 0.353E+02 0.529E+03   -.224E+01 -.370E+02 -.529E+03   0.634E-01 0.170E+01 0.614E-01   0.244E-01 -.645E-02 0.705E-01
   -.442E+00 -.363E+01 0.164E+04   0.482E+00 0.179E+01 -.164E+04   -.662E-01 0.179E+01 -.519E+00   -.170E-01 -.789E-03 0.119E-01
   0.438E+00 -.363E+01 0.164E+04   -.477E+00 0.179E+01 -.164E+04   0.662E-01 0.179E+01 -.519E+00   0.155E-01 -.893E-03 0.108E-01
   -.584E+01 0.141E-11 0.732E+02   0.594E+01 0.377E-14 -.706E+02   -.109E+00 0.000E+00 -.233E+01   -.380E-01 -.122E-12 0.758E-01
   -.454E-01 -.268E-11 0.642E+02   0.476E-01 -.355E-14 -.610E+02   0.771E-03 0.000E+00 -.276E+01   -.269E-02 -.133E-12 0.819E-01
   -.112E+01 0.140E-11 0.117E+04   0.114E+01 0.213E-13 -.117E+04   0.978E-02 0.000E+00 0.255E+00   -.263E-01 0.175E-12 0.522E-01
   -.636E-02 -.165E-11 0.117E+04   0.792E-02 0.333E-14 -.117E+04   -.964E-04 0.000E+00 0.299E+00   -.150E-02 0.240E-12 0.390E-01
   -.223E+01 -.353E+02 0.529E+03   0.227E+01 0.370E+02 -.529E+03   -.638E-01 -.170E+01 0.614E-01   -.285E-01 0.648E-02 0.710E-01
   0.221E+01 -.353E+02 0.529E+03   -.224E+01 0.370E+02 -.529E+03   0.634E-01 -.170E+01 0.614E-01   0.244E-01 0.645E-02 0.705E-01
   -.442E+00 0.363E+01 0.164E+04   0.482E+00 -.179E+01 -.164E+04   -.662E-01 -.179E+01 -.519E+00   -.170E-01 0.789E-03 0.119E-01
   0.438E+00 0.363E+01 0.164E+04   -.477E+00 -.179E+01 -.164E+04   0.662E-01 -.179E+01 -.519E+00   0.155E-01 0.893E-03 0.108E-01
   -.320E+02 -.303E-12 -.121E+04   0.312E+02 -.111E-13 0.121E+04   0.903E+00 0.000E+00 -.127E+01   -.482E-01 0.129E-12 0.539E-01
   -.151E-01 -.375E-11 -.128E+04   0.192E-01 -.355E-14 0.128E+04   -.291E-02 0.000E+00 0.925E+00   -.281E-02 0.179E-12 0.492E-01
   -.664E+01 0.738E-12 -.119E+03   0.668E+01 -.266E-14 0.117E+03   -.644E-02 0.000E+00 0.184E+01   -.367E-01 0.724E-13 0.792E-01
   -.732E-01 -.246E-12 -.125E+03   0.828E-01 0.000E+00 0.123E+03   -.731E-02 0.000E+00 0.189E+01   -.101E-02 0.207E-12 0.965E-01
   -.422E+02 0.238E+02 -.171E+04   0.420E+02 -.256E+02 0.172E+04   0.269E+00 0.177E+01 -.502E+01   -.353E-01 0.115E-01 0.198E-01
   0.422E+02 0.239E+02 -.171E+04   -.419E+02 -.257E+02 0.172E+04   -.270E+00 0.179E+01 -.505E+01   0.344E-01 0.135E-01 0.208E-01
   -.109E+02 0.303E+02 -.591E+03   0.112E+02 -.320E+02 0.591E+03   -.207E+00 0.165E+01 -.506E+00   -.222E-01 0.122E-02 0.653E-01
   0.109E+02 0.303E+02 -.591E+03   -.111E+02 -.319E+02 0.592E+03   0.200E+00 0.166E+01 -.533E+00   0.171E-01 -.128E-02 0.666E-01
   -.489E+02 -.738E-12 -.202E+04   0.488E+02 -.112E-13 0.205E+04   0.130E+00 0.000E+00 -.277E+02   -.375E-01 0.897E-13 -.100E-01
   -.153E+02 -.422E-12 -.103E+04   0.152E+02 -.244E-14 0.103E+04   0.122E+00 0.000E+00 0.179E+01   -.536E-01 -.968E-13 0.840E-01
   -.444E-01 0.141E-11 -.105E+04   0.470E-01 0.142E-13 0.104E+04   -.237E-02 0.000E+00 0.127E+01   0.548E-03 -.135E-12 0.777E-01
   -.422E+02 -.238E+02 -.171E+04   0.420E+02 0.256E+02 0.172E+04   0.269E+00 -.177E+01 -.502E+01   -.353E-01 -.115E-01 0.198E-01
   0.422E+02 -.239E+02 -.171E+04   -.419E+02 0.257E+02 0.172E+04   -.270E+00 -.179E+01 -.505E+01   0.344E-01 -.135E-01 0.208E-01
   -.109E+02 -.303E+02 -.591E+03   0.112E+02 0.320E+02 0.591E+03   -.207E+00 -.165E+01 -.506E+00   -.222E-01 -.122E-02 0.653E-01
   0.109E+02 -.303E+02 -.591E+03   -.111E+02 0.319E+02 0.592E+03   0.200E+00 -.166E+01 -.533E+00   0.171E-01 0.128E-02 0.666E-01
 -----------------------------------------------------------------------------------------------
   0.670E-02 0.568E-10 0.125E+02   -.149E-11 -.711E-14 -.205E-11   -.426E-01 0.111E-14 -.174E+02   0.315E-03 -.183E-13 0.483E+01
 
 
 POSITION                                       TOTAL-FORCE (eV/Angst)
 -----------------------------------------------------------------------------------
      1.60107      3.23512      4.85268        -0.008605     -0.000000     -0.304903
      4.80320      3.23512      4.85268         0.009183     -0.000000     -0.304992
      1.60107      0.00000      1.61756        -0.012382     -0.000000     -0.934962
      4.80320      0.00000      1.61756         0.013228     -0.000000     -0.935082
      0.00000      3.23512      1.61756         0.012536     -0.000000      1.613358
      3.20213      3.23512      1.61756         0.000404     -0.000000      1.653074
      0.00000      0.00000      4.85268        -0.012876     -0.000000     -0.334231
      3.20213      0.00000      4.85268         0.000179     -0.000000     -0.324625
      1.60680      3.23512     11.36016        -0.003569     -0.000000      0.005111
      4.79769      3.23512     11.36014         0.000347     -0.000000      0.010849
      1.59938      0.00000      8.08075         0.000830     -0.000000     -0.023108
      4.80480      0.00000      8.08062         0.003265     -0.000000     -0.018640
     -0.00259      3.23512      8.09835         0.030801     -0.000000      0.010234
      3.20207      3.23512      8.09627         0.001286     -0.000000      0.006968
     -0.00684      0.00000     11.28266        -0.007664     -0.000000     -0.007231
      3.20201      0.00000     11.26750         0.003610     -0.000000     -0.031425
      0.00000      3.23512      3.61324        -0.014642     -0.000000     -0.156187
      3.20213      3.23512      3.61324         0.000464     -0.000000     -0.190040
      0.00000      0.00000      0.37812         0.010127     -0.000000      0.796629
      3.20213      0.00000      0.37812         0.000337     -0.000000      0.801490
      1.60107      5.23080      4.85268        -0.051868     -0.022971     -0.030822
      4.80320      5.23080      4.85268         0.052532     -0.022894     -0.030928
      1.60107      1.99568      1.61756        -0.054027     -0.049471     -0.688791
      4.80320      1.99568      1.61756         0.054783     -0.049468     -0.688765
      0.00000      3.23512      6.09212         0.042178     -0.000000      0.370099
      3.20213      3.23512      6.09212         0.000620     -0.000000      0.389231
      0.00000      0.00000      2.85700         0.000548     -0.000000      0.219943
      3.20213      0.00000      2.85700         0.000418     -0.000000      0.248150
      1.60107      1.23944      4.85268        -0.051868      0.022971     -0.030822
      4.80320      1.23944      4.85268         0.052532      0.022894     -0.030928
      1.60107      4.47456      1.61756        -0.054027      0.049471     -0.688791
      4.80320      4.47456      1.61756         0.054783      0.049468     -0.688765
      0.04245      3.23512     10.06912        -0.014956     -0.000000     -0.002347
      3.20205      3.23512     10.08807         0.001719     -0.000000      0.048290
     12.80558      0.00000      6.84009         0.006377     -0.000000     -0.002538
      3.20208      0.00000      6.84027        -0.000010     -0.000000      0.006361
      1.60405      5.24334     11.42040        -0.009100      0.007083     -0.007104
      4.80035      5.24318     11.42053         0.006812      0.010744     -0.008355
      1.60062      1.99421      8.08574        -0.016752     -0.005684      0.010334
      4.80359      1.99431      8.08616         0.016819     -0.007938      0.010422
      0.00111      3.23512     12.54245        -0.008201     -0.000000      0.027873
      3.20234      3.23512     12.54067        -0.014302     -0.000000      0.004471
     12.80662      0.00000      9.31478         0.023390     -0.000000      0.010713
      3.20224      0.00000      9.30863         0.000322     -0.000000      0.028312
      1.60405      1.22690     11.42040        -0.009100     -0.007083     -0.007104
      4.80035      1.22707     11.42053         0.006812     -0.010744     -0.008355
      1.60062      4.47604      8.08574        -0.016752      0.005684      0.010334
      4.80359      4.47593      8.08616         0.016819      0.007938      0.010422
      8.00533      3.23512      4.85268         0.029903     -0.000000     -0.301767
     11.20747      3.23512      4.85268        -0.028860     -0.000000     -0.301888
      8.00533      0.00000      1.61756        -0.004572     -0.000000     -0.934033
     11.20747      0.00000      1.61756         0.005097     -0.000000     -0.933867
      6.40427      3.23512      1.61756        -0.011829     -0.000000      1.613346
      9.60640      3.23512      1.61756         0.000366     -0.000000      1.508512
      6.40427      0.00000      4.85268         0.012413     -0.000000     -0.337842
      9.60640      0.00000      4.85268         0.000579     -0.000000     -0.320661
      7.98696      3.23512     11.35450         0.021116     -0.000000      0.022427
     11.22574      3.23512     11.35482        -0.024164     -0.000000      0.016140
      8.00607      0.00000      8.08281         0.004707     -0.000000      0.004446
     11.20669      0.00000      8.08319        -0.011634     -0.000000      0.000513
      6.40685      3.23512      8.09829        -0.034963     -0.000000      0.009197
      9.60640      3.23512      8.11596        -0.001762     -0.000000      0.018658
      6.41075      0.00000     11.28216         0.015322     -0.000000      0.002266
      9.60642      0.00000     11.28451        -0.006341     -0.000000      0.009119
      6.40427      3.23512      3.61324         0.015443     -0.000000     -0.156202
      9.60640      3.23512      3.61324         0.000194     -0.000000     -0.056551
      6.40427      0.00000      0.37812        -0.009337     -0.000000      0.796614
      9.60640      0.00000      0.37812         0.000429     -0.000000      0.802737
      8.00533      5.23080      4.85268        -0.055480     -0.029779     -0.027029
     11.20747      5.23080      4.85268         0.056211     -0.029934     -0.026920
      8.00533      1.99568      1.61756        -0.042626     -0.057310     -0.681951
     11.20747      1.99568      1.61756         0.043374     -0.057332     -0.682005
      6.40427      3.23512      6.09212        -0.042449     -0.000000      0.369876
      9.60640      3.23512      6.09212         0.000627     -0.000000      0.537597
      6.40427      0.00000      2.85700         0.000614     -0.000000      0.219696
      9.60640      0.00000      2.85700         0.000340     -0.000000      0.265061
      8.00533      1.23944      4.85268        -0.055480      0.029779     -0.027029
     11.20747      1.23944      4.85268         0.056211      0.029934     -0.026920
      8.00533      4.47456      1.61756        -0.042626      0.057310     -0.681951
     11.20747      4.47456      1.61756         0.043374      0.057332     -0.682005
      6.36162      3.23512     10.06904         0.017936     -0.000000     -0.002459
      9.60646      3.23512     10.13851        -0.001297     -0.000000      0.035518
      6.40702      0.00000      6.83973        -0.009022     -0.000000      0.019020
      9.60640      0.00000      6.83931         0.001717     -0.000000      0.012125
      8.01242      5.23290     11.44535         0.007622      0.014207      0.023329
     11.19991      5.23304     11.44617         0.001583      0.013411      0.013162
      8.00322      1.99471      8.10930         0.013984     -0.007863      0.003388
     11.20936      1.99466      8.10991        -0.011137     -0.000412     -0.004702
      6.40341      3.23512     12.54282        -0.008220     -0.000000      0.026074
      6.40622      0.00000      9.31485        -0.023926     -0.000000     -0.001093
      9.60608      0.00000      9.31255         0.001143     -0.000000      0.010049
      8.01242      1.23734     11.44535         0.007622     -0.014207      0.023329
     11.19991      1.23721     11.44617         0.001583     -0.013411      0.013162
      8.00322      4.47553      8.10930         0.013984      0.007863      0.003388
     11.20936      4.47558      8.10991        -0.011137      0.000412     -0.004702
 -----------------------------------------------------------------------------------
    total drift:                               -0.035595      0.000000     -0.020035


--------------------------------------------------------------------------------------------------------



  FREE ENERGIE OF THE ION-ELECTRON SYSTEM (eV)
  ---------------------------------------------------
  free  energy   TOTEN  =      -608.01027421 eV

  energy  without entropy=     -607.94036731  energy(sigma->0) =     -607.97532076
 
 d Force = 0.8675404E-03[ 0.178E-03, 0.156E-02]  d Energy = 0.9594026E-03-0.919E-04
 d Force = 0.7252550E+02[ 0.725E+02, 0.725E+02]  d Ewald  = 0.7252549E+02 0.372E-05


--------------------------------------------------------------------------------------------------------


    POTLOK:  cpu time    0.0957: real time    0.0959


--------------------------------------------------------------------------------------------------------


 stress matrix after NEB project (eV)
    -16.63782      0.00000     -0.01714
      0.00000     -9.31031      0.00000
     -0.01714      0.00000     -3.70715
  FORCES: max atom, RMS     0.048321    0.015140
  FORCE total and by dimension    0.147570    0.048290
  Stress total and by dimension   19.422731   16.637821
 Conjugate gradient step on ions:
 trial-energy change:   -0.000959  1 .order   -0.000868   -0.001557   -0.000178
  (g-gl).g = 0.137E-02      g.g   = 0.181E-02  gl.gl    = 0.283E-02
 g(Force)  = 0.181E-02   g(Stress)= 0.000E+00 ortho     =-0.123E-03
 gamma     =   0.48490
 trial     =   0.89168
 opt step  =   0.97178  (harmonic =   1.00666) maximal distance =0.00336225
 next E    =  -608.010282   (d E  =  -0.00097)


--------------------------------------------------------------------------------------------------------


  
 reached required accuracy - stopping structural energy minimisation
     LOOP+:  cpu time   75.3053: real time   75.5507
    4ORBIT:  cpu time    0.0000: real time    0.0000

 total amount of memory used by VASP MPI-rank0   127117. kBytes
=======================================================================

   base      :      30000. kBytes
   nonlr-proj:       5732. kBytes
   fftplans  :       3841. kBytes
   grid      :      10919. kBytes
   one-center:        311. kBytes
   wavefun   :      76314. kBytes
 
  
  
 General timing and accounting informations for this job:
 ========================================================
  
                  Total CPU time used (sec):     1530.901
                            User time (sec):     1503.396
                          System time (sec):       27.505
                         Elapsed time (sec):     1536.640
  
                   Maximum memory used (kb):      201984.
                   Average memory used (kb):           0.
  
                          Minor page faults:       148862
                          Major page faults:          189
                 Voluntary context switches:         2750
