 vasp.5.4.4.18Apr17-6-g9f103f2a35 (build Feb 25 2019 10:51:38) complex          
  
 executed on             LinuxIFC date 2023.07.18  10:47:01
 running on   40 total cores
 distrk:  each k-point on   40 cores,    1 groups
 distr:  one band on NCORES_PER_BAND=   1 cores,   40 groups


--------------------------------------------------------------------------------------------------------


 INCAR:
 POTCAR:    PAW_PBE Ir 06Sep2000                  
 POTCAR:    PAW_PBE O 08Apr2002                   
 POTCAR:    PAW_PBE Ir 06Sep2000                  
 POTCAR:    PAW_PBE O 08Apr2002                   

 ----------------------------------------------------------------------------- 
|                                                                             |
|           W    W    AA    RRRRR   N    N  II  N    N   GGGG   !!!           |
|           W    W   A  A   R    R  NN   N  II  NN   N  G    G  !!!           |
|           W    W  A    A  R    R  N N  N  II  N N  N  G       !!!           |
|           W WW W  AAAAAA  RRRRR   N  N N  II  N  N N  G  GGG   !            |
|           WW  WW  A    A  R   R   N   NN  II  N   NN  G    G                |
|           W    W  A    A  R    R  N    N  II  N    N   GGGG   !!!           |
|                                                                             |
|      For optimal performance we recommend to set                            |
|        NCORE= 4 - approx SQRT( number of cores)                             |
|      NCORE specifies how many cores store one orbital (NPAR=cpu/NCORE).     |
|      This setting can  greatly improve the performance of VASP for DFT.     |
|      The default,   NCORE=1            might be grossly inefficient         |
|      on modern multi-core architectures or massively parallel machines.     |
|      Do your own testing !!!!                                               |
|      Unfortunately you need to use the default for GW and RPA calculations. |
|      (for HF NCORE is supported but not extensively tested yet)             |
|                                                                             |
 ----------------------------------------------------------------------------- 

 POTCAR:    PAW_PBE Ir 06Sep2000                  
   VRHFIN =Ir: s1d8                                                             
   LEXCH  = PE                                                                  
   EATOM  =   560.1833 eV,   41.1723 Ry                                         
                                                                                
   TITEL  = PAW_PBE Ir 06Sep2000                                                
   LULTRA =        F    use ultrasoft PP ?                                      
   IUNSCR =        1    unscreen: 0-lin 1-nonlin 2-no                           
   RPACOR =    2.250    partial core radius                                     
   POMASS =  192.220; ZVAL   =    9.000    mass and valenz                      
   RCORE  =    2.600    outmost cutoff radius                                   
   RWIGS  =    2.690; RWIGS  =    1.423    wigner-seitz radius (au A)           
   ENMAX  =  210.864; ENMIN  =  158.148 eV                                      
   RCLOC  =    1.857    cutoff for local pot                                    
   LCOR   =        T    correct aug charges                                     
   LPAW   =        T    paw PP                                                  
   EAUG   =  318.962                                                            
   DEXC   =    0.000                                                            
   RMAX   =    2.667    core radius for proj-oper                               
   RAUG   =    1.300    factor for augmentation sphere                          
   RDEP   =    2.748    radius for radial grids                                 
   RDEPT  =    2.300    core radius for aug-charge                              
                                                                                
   Atomic configuration                                                         
   16 entries                                                                   
     n  l   j            E        occ.                                          
     1  0  0.50    -76100.0449   2.0000                                         
     2  0  0.50    -13308.1683   2.0000                                         
     2  1  1.50    -11558.0021   6.0000                                         
     3  0  0.50     -3110.7274   2.0000                                         
     3  1  1.50     -2599.2109   6.0000                                         
     3  2  2.50     -2037.1515  10.0000                                         
     4  0  0.50      -661.6001   2.0000                                         
     4  1  1.50      -493.8981   6.0000                                         
     4  2  2.50      -288.1909  10.0000                                         
     4  3  3.50       -59.5718  14.0000                                         
     5  0  0.50       -95.3879   2.0000                                         
     5  1  1.50       -52.2747   6.0000                                         
     5  2  2.50        -5.4180   8.0000                                         
     6  0  0.50        -5.5479   1.0000                                         
     6  1  1.50        -6.8029   0.0000                                         
     5  3  2.50        -1.3606   0.0000                                         
   Description                                                                  
     l       E           TYP  RCUT    TYP  RCUT                                 
     2     -5.4179967     23  2.600                                             
     2     -6.7785793     23  2.600                                             
     0     -5.5478636     23  2.600                                             
     0      2.2542272     23  2.600                                             
     1     -2.7211652     23  2.600                                             
     1     20.4087390     23  2.600                                             
  local pseudopotential read in
  partial core-charges read in
  partial kinetic energy density read in
  atomic valenz-charges read in
  non local Contribution for L=           2  read in
    real space projection operators read in
  non local Contribution for L=           2  read in
    real space projection operators read in
  non local Contribution for L=           0  read in
    real space projection operators read in
  non local Contribution for L=           0  read in
    real space projection operators read in
  non local Contribution for L=           1  read in
    real space projection operators read in
  non local Contribution for L=           1  read in
    real space projection operators read in
    PAW grid and wavefunctions read in
 
   number of l-projection  operators is LMAX  =           6
   number of lm-projection operators is LMMAX =          18
 
 POTCAR:    PAW_PBE O 08Apr2002                   
   VRHFIN =O: s2p4                                                              
   LEXCH  = PE                                                                  
   EATOM  =   432.3788 eV,   31.7789 Ry                                         
                                                                                
   TITEL  = PAW_PBE O 08Apr2002                                                 
   LULTRA =        F    use ultrasoft PP ?                                      
   IUNSCR =        1    unscreen: 0-lin 1-nonlin 2-no                           
   RPACOR =    1.200    partial core radius                                     
   POMASS =   16.000; ZVAL   =    6.000    mass and valenz                      
   RCORE  =    1.520    outmost cutoff radius                                   
   RWIGS  =    1.550; RWIGS  =    0.820    wigner-seitz radius (au A)           
   ENMAX  =  400.000; ENMIN  =  300.000 eV                                      
   ICORE  =        2    local potential                                         
   LCOR   =        T    correct aug charges                                     
   LPAW   =        T    paw PP                                                  
   EAUG   =  605.392                                                            
   DEXC   =    0.000                                                            
   RMAX   =    1.553    core radius for proj-oper                               
   RAUG   =    1.300    factor for augmentation sphere                          
   RDEP   =    1.550    radius for radial grids                                 
   RDEPT  =    1.329    core radius for aug-charge                              
                                                                                
   Atomic configuration                                                         
    4 entries                                                                   
     n  l   j            E        occ.                                          
     1  0  0.50      -514.6923   2.0000                                         
     2  0  0.50       -23.9615   2.0000                                         
     2  1  0.50        -9.0305   4.0000                                         
     3  2  1.50        -9.5241   0.0000                                         
   Description                                                                  
     l       E           TYP  RCUT    TYP  RCUT                                 
     0    -23.9615318     23  1.200                                             
     0     -9.5240782     23  1.200                                             
     1     -9.0304911     23  1.520                                             
     1      8.1634956     23  1.520                                             
     2     -9.5240782      7  1.500                                             
  local pseudopotential read in
  partial core-charges read in
  partial kinetic energy density read in
  kinetic energy density of atom read in
  atomic valenz-charges read in
  non local Contribution for L=           0  read in
    real space projection operators read in
  non local Contribution for L=           0  read in
    real space projection operators read in
  non local Contribution for L=           1  read in
    real space projection operators read in
  non local Contribution for L=           1  read in
    real space projection operators read in
    PAW grid and wavefunctions read in
 
   number of l-projection  operators is LMAX  =           4
   number of lm-projection operators is LMMAX =           8
 
 POTCAR:    PAW_PBE Ir 06Sep2000                  
   VRHFIN =Ir: s1d8                                                             
   LEXCH  = PE                                                                  
   EATOM  =   560.1833 eV,   41.1723 Ry                                         
                                                                                
   TITEL  = PAW_PBE Ir 06Sep2000                                                
   LULTRA =        F    use ultrasoft PP ?                                      
   IUNSCR =        1    unscreen: 0-lin 1-nonlin 2-no                           
   RPACOR =    2.250    partial core radius                                     
   POMASS =  192.220; ZVAL   =    9.000    mass and valenz                      
   RCORE  =    2.600    outmost cutoff radius                                   
   RWIGS  =    2.690; RWIGS  =    1.423    wigner-seitz radius (au A)           
   ENMAX  =  210.864; ENMIN  =  158.148 eV                                      
   RCLOC  =    1.857    cutoff for local pot                                    
   LCOR   =        T    correct aug charges                                     
   LPAW   =        T    paw PP                                                  
   EAUG   =  318.962                                                            
   DEXC   =    0.000                                                            
   RMAX   =    2.667    core radius for proj-oper                               
   RAUG   =    1.300    factor for augmentation sphere                          
   RDEP   =    2.748    radius for radial grids                                 
   RDEPT  =    2.300    core radius for aug-charge                              
                                                                                
   Atomic configuration                                                         
   16 entries                                                                   
     n  l   j            E        occ.                                          
     1  0  0.50    -76100.0449   2.0000                                         
     2  0  0.50    -13308.1683   2.0000                                         
     2  1  1.50    -11558.0021   6.0000                                         
     3  0  0.50     -3110.7274   2.0000                                         
     3  1  1.50     -2599.2109   6.0000                                         
     3  2  2.50     -2037.1515  10.0000                                         
     4  0  0.50      -661.6001   2.0000                                         
     4  1  1.50      -493.8981   6.0000                                         
     4  2  2.50      -288.1909  10.0000                                         
     4  3  3.50       -59.5718  14.0000                                         
     5  0  0.50       -95.3879   2.0000                                         
     5  1  1.50       -52.2747   6.0000                                         
     5  2  2.50        -5.4180   8.0000                                         
     6  0  0.50        -5.5479   1.0000                                         
     6  1  1.50        -6.8029   0.0000                                         
     5  3  2.50        -1.3606   0.0000                                         
   Description                                                                  
     l       E           TYP  RCUT    TYP  RCUT                                 
     2     -5.4179967     23  2.600                                             
     2     -6.7785793     23  2.600                                             
     0     -5.5478636     23  2.600                                             
     0      2.2542272     23  2.600                                             
     1     -2.7211652     23  2.600                                             
     1     20.4087390     23  2.600                                             
  local pseudopotential read in
  partial core-charges read in
  partial kinetic energy density read in
  atomic valenz-charges read in
  non local Contribution for L=           2  read in
    real space projection operators read in
  non local Contribution for L=           2  read in
    real space projection operators read in
  non local Contribution for L=           0  read in
    real space projection operators read in
  non local Contribution for L=           0  read in
    real space projection operators read in
  non local Contribution for L=           1  read in
    real space projection operators read in
  non local Contribution for L=           1  read in
    real space projection operators read in
    PAW grid and wavefunctions read in
 
   number of l-projection  operators is LMAX  =           6
   number of lm-projection operators is LMMAX =          18
 
 POTCAR:    PAW_PBE O 08Apr2002                   
   VRHFIN =O: s2p4                                                              
   LEXCH  = PE                                                                  
   EATOM  =   432.3788 eV,   31.7789 Ry                                         
                                                                                
   TITEL  = PAW_PBE O 08Apr2002                                                 
   LULTRA =        F    use ultrasoft PP ?                                      
   IUNSCR =        1    unscreen: 0-lin 1-nonlin 2-no                           
   RPACOR =    1.200    partial core radius                                     
   POMASS =   16.000; ZVAL   =    6.000    mass and valenz                      
   RCORE  =    1.520    outmost cutoff radius                                   
   RWIGS  =    1.550; RWIGS  =    0.820    wigner-seitz radius (au A)           
   ENMAX  =  400.000; ENMIN  =  300.000 eV                                      
   ICORE  =        2    local potential                                         
   LCOR   =        T    correct aug charges                                     
   LPAW   =        T    paw PP                                                  
   EAUG   =  605.392                                                            
   DEXC   =    0.000                                                            
   RMAX   =    1.553    core radius for proj-oper                               
   RAUG   =    1.300    factor for augmentation sphere                          
   RDEP   =    1.550    radius for radial grids                                 
   RDEPT  =    1.329    core radius for aug-charge                              
                                                                                
   Atomic configuration                                                         
    4 entries                                                                   
     n  l   j            E        occ.                                          
     1  0  0.50      -514.6923   2.0000                                         
     2  0  0.50       -23.9615   2.0000                                         
     2  1  0.50        -9.0305   4.0000                                         
     3  2  1.50        -9.5241   0.0000                                         
   Description                                                                  
     l       E           TYP  RCUT    TYP  RCUT                                 
     0    -23.9615318     23  1.200                                             
     0     -9.5240782     23  1.200                                             
     1     -9.0304911     23  1.520                                             
     1      8.1634956     23  1.520                                             
     2     -9.5240782      7  1.500                                             
  local pseudopotential read in
  partial core-charges read in
  partial kinetic energy density read in
  kinetic energy density of atom read in
  atomic valenz-charges read in
  non local Contribution for L=           0  read in
    real space projection operators read in
  non local Contribution for L=           0  read in
    real space projection operators read in
  non local Contribution for L=           1  read in
    real space projection operators read in
  non local Contribution for L=           1  read in
    real space projection operators read in
    PAW grid and wavefunctions read in
 
   number of l-projection  operators is LMAX  =           4
   number of lm-projection operators is LMMAX =           8
 
 Optimization of the real space projectors (new method)

 maximal supplied QI-value         = 14.36
 optimisation between [QCUT,QGAM] = [ 11.35, 22.84] = [ 36.05,146.02] Ry 
 Optimized for a Real-space Cutoff    1.52 Angstroem

   l    n(q)    QCUT    max X(q) W(low)/X(q) W(high)/X(q)  e(spline) 
   2      9    11.346   134.116    0.47E-03    0.13E-03    0.92E-06
   2      9    11.346   130.192    0.47E-03    0.13E-03    0.92E-06
   0     10    11.346    60.310    0.74E-04    0.13E-03    0.69E-06
   0     10    11.346    39.218    0.68E-04    0.12E-03    0.65E-06
   1     10    11.346    18.439    0.15E-03    0.34E-04    0.20E-06
   1     10    11.346    12.760    0.12E-03    0.31E-04    0.16E-06
 Optimization of the real space projectors (new method)

 maximal supplied QI-value         = 24.76
 optimisation between [QCUT,QGAM] = [ 11.39, 22.77] = [ 36.31,145.25] Ry 
 Optimized for a Real-space Cutoff    1.00 Angstroem

   l    n(q)    QCUT    max X(q) W(low)/X(q) W(high)/X(q)  e(spline) 
   0      7    11.387    20.381    0.39E-03    0.13E-02    0.15E-06
   0      7    11.387    15.268    0.42E-03    0.14E-02    0.17E-06
   1      6    11.387     5.964    0.41E-03    0.11E-02    0.17E-06
   1      6    11.387     5.382    0.39E-03    0.87E-03    0.15E-06
 Optimization of the real space projectors (new method)

 maximal supplied QI-value         = 14.36
 optimisation between [QCUT,QGAM] = [ 11.35, 22.84] = [ 36.05,146.02] Ry 
 Optimized for a Real-space Cutoff    1.52 Angstroem

   l    n(q)    QCUT    max X(q) W(low)/X(q) W(high)/X(q)  e(spline) 
   2      9    11.346   134.116    0.47E-03    0.13E-03    0.92E-06
   2      9    11.346   130.192    0.47E-03    0.13E-03    0.92E-06
   0     10    11.346    60.310    0.74E-04    0.13E-03    0.69E-06
   0     10    11.346    39.218    0.68E-04    0.12E-03    0.65E-06
   1     10    11.346    18.439    0.15E-03    0.34E-04    0.20E-06
   1     10    11.346    12.760    0.12E-03    0.31E-04    0.16E-06
 Optimization of the real space projectors (new method)

 maximal supplied QI-value         = 24.76
 optimisation between [QCUT,QGAM] = [ 11.39, 22.77] = [ 36.31,145.25] Ry 
 Optimized for a Real-space Cutoff    1.00 Angstroem

   l    n(q)    QCUT    max X(q) W(low)/X(q) W(high)/X(q)  e(spline) 
   0      7    11.387    20.381    0.39E-03    0.13E-02    0.15E-06
   0      7    11.387    15.268    0.42E-03    0.14E-02    0.17E-06
   1      6    11.387     5.964    0.41E-03    0.11E-02    0.17E-06
   1      6    11.387     5.382    0.39E-03    0.87E-03    0.15E-06

 ----------------------------------------------------------------------------- 
|                                                                             |
|  ADVICE TO THIS USER RUNNING 'VASP/VAMP'   (HEAR YOUR MASTER'S VOICE ...):  |
|                                                                             |
|      You enforced a specific xc-type in the INCAR file,                     |
|      a different type was found on the POTCAR file                          |
|          I HOPE YOU KNOW, WHAT YOU ARE  DOING                               |
|                                                                             |
 ----------------------------------------------------------------------------- 

  PAW_PBE Ir 06Sep2000                  :
 energy of atom  1       EATOM= -560.1833
 kinetic energy error for atom=    0.0018 (will be added to EATOM!!)
  PAW_PBE O 08Apr2002                   :
 energy of atom  2       EATOM= -432.3788
 kinetic energy error for atom=    0.0224 (will be added to EATOM!!)
  PAW_PBE Ir 06Sep2000                  :
 energy of atom  3       EATOM= -560.1833
 kinetic energy error for atom=    0.0018 (will be added to EATOM!!)
  PAW_PBE O 08Apr2002                   :
 energy of atom  4       EATOM= -432.3788
 kinetic energy error for atom=    0.0224 (will be added to EATOM!!)
 
 
 POSCAR: Ir  O Ir  O                             
  positions in cartesian coordinates
  No initial velocities read in
 exchange correlation table for  LEXCH =        9
   RHO(1)=    0.500       N(1)  =     2000
   RHO(2)=  100.500       N(2)  =     4000

 VTST: version 3.2, (02/03/18)

 CHAIN: initializing optimizer
 
 OPT: Using VASP Dynamics algorithm
 CHAIN: Read ICHAIN            0
 
 POSCAR: Ir  O Ir  O                             
  positions in cartesian coordinates
  No initial velocities read in
 


--------------------------------------------------------------------------------------------------------


 ion  position               nearest neighbor table
   1  0.125  0.500  0.188-  21 2.00  29 2.00  17 2.02  25 2.02  26 2.02  18 2.02   2 3.20  50 3.20

   2  0.375  0.500  0.188-  22 2.00  30 2.00  26 2.02  18 2.02  63 2.02  71 2.02   1 3.20  49 3.20

   3  0.125  0.000  0.062-  23 2.00  31 2.00  19 2.02  27 2.02  28 2.02  20 2.02   4 3.20  52 3.20

   4  0.375  0.000  0.062-  24 2.00  32 2.00  28 2.02  20 2.02  65 2.02  73 2.02   3 3.20  51 3.20

   5  0.000  0.500  0.062-  17 2.00  23 2.02  31 2.02  70 2.02  78 2.02   6 3.20  54 3.20
   6  0.250  0.500  0.062-  18 2.00  23 2.02  24 2.02  31 2.02  32 2.02   5 3.20  53 3.20
   7  0.000  0.000  0.188-  27 2.00  35 2.00  29 2.02  21 2.02  68 2.02  76 2.02   8 3.20  56 3.20

   8  0.250  0.000  0.188-  36 1.99  28 2.00  21 2.02  29 2.02  30 2.02  22 2.02   7 3.20  55 3.20

   9  0.122  0.500  0.440-  41 1.80  42 1.95  33 1.95  37 2.02  45 2.02  34 2.12  10 3.27
  10  0.378  0.500  0.440-  87 1.80  79 1.94  42 1.95  38 2.02  46 2.02  34 2.12   9 3.27
  11  0.124  0.000  0.312-  39 1.99  47 1.99  35 2.02  44 2.02  36 2.03  43 2.03  12 3.22  58 3.22

  12  0.376  0.000  0.312-  40 1.99  48 1.99  81 2.02  44 2.03  36 2.03  88 2.03  11 3.22  57 3.23

  13  0.002  0.500  0.314-  33 1.92  39 2.01  47 2.01  25 2.03  86 2.04  93 2.04  14 3.18  60 3.23

  14  0.250  0.500  0.312-  34 1.97  26 1.98  40 2.02  48 2.02  47 2.02  39 2.02  59 3.17  13 3.18

  15  0.988  0.000  0.435-  43 1.94  84 1.95  91 1.95  37 2.12  45 2.12  62 3.11  16 3.36
  16  0.250  0.000  0.434-  44 1.94  46 2.03  38 2.03  45 2.03  37 2.03  61 3.36  15 3.36
  17  0.000  0.500  0.140-   5 2.00   1 2.02  50 2.02
  18  0.250  0.500  0.140-   6 2.00   2 2.02   1 2.02
  19  0.000  0.000  0.015-   3 2.02  52 2.02
  20  0.250  0.000  0.015-   3 2.02   4 2.02
  21  0.125  0.808  0.188-   1 2.00   7 2.02   8 2.02
  22  0.375  0.808  0.188-   2 2.00   8 2.02  55 2.02
  23  0.125  0.308  0.062-   3 2.00   5 2.02   6 2.02
  24  0.375  0.308  0.062-   4 2.00   6 2.02  53 2.02
  25  0.000  0.500  0.235-   1 2.02  50 2.02  13 2.03
  26  0.250  0.500  0.235-  14 1.98   2 2.02   1 2.02
  27  0.000  0.000  0.110-   7 2.00   3 2.02  52 2.02
  28  0.250  0.000  0.110-   8 2.00   4 2.02   3 2.02
  29  0.125  0.192  0.188-   1 2.00   7 2.02   8 2.02
  30  0.375  0.192  0.188-   2 2.00   8 2.02  55 2.02
  31  0.125  0.692  0.062-   3 2.00   5 2.02   6 2.02
  32  0.375  0.692  0.062-   4 2.00   6 2.02  53 2.02
  33  0.011  0.500  0.388-  13 1.92   9 1.95
  34  0.250  0.500  0.388-  14 1.97   9 2.12  10 2.12
  35  0.999  0.000  0.265-   7 2.00  11 2.02  58 2.05
  36  0.250  0.000  0.264-   8 1.99  12 2.03  11 2.03
  37  0.123  0.813  0.439-   9 2.02  16 2.03  15 2.12
  38  0.377  0.813  0.439-  10 2.02  16 2.03  61 2.12
  39  0.125  0.308  0.311-  11 1.99  13 2.01  14 2.02
  40  0.374  0.308  0.311-  12 1.99  59 2.01  14 2.02
  41  0.036  0.500  0.495-   9 1.80
  42  0.250  0.500  0.481-  10 1.95   9 1.95
  43  0.998  0.000  0.360-  15 1.94  58 2.02  11 2.03
  44  0.250  0.000  0.359-  16 1.94  11 2.02  12 2.03
  45  0.123  0.187  0.439-   9 2.02  16 2.03  15 2.12
  46  0.377  0.187  0.439-  10 2.02  16 2.03  61 2.12
  47  0.125  0.692  0.311-  11 1.99  13 2.01  14 2.02
  48  0.374  0.692  0.311-  12 1.99  59 2.01  14 2.02
  49  0.625  0.500  0.188-  67 2.00  75 2.00  63 2.02  71 2.02  72 2.02  64 2.02   2 3.20  50 3.20

  50  0.875  0.500  0.188-  68 2.00  76 2.00  64 2.02  17 2.02  72 2.02  25 2.02   1 3.20  49 3.20

  51  0.625  0.000  0.062-  69 2.00  77 2.00  65 2.02  73 2.02  74 2.02  66 2.02   4 3.20  52 3.20

  52  0.875  0.000  0.062-  70 2.00  78 2.00  66 2.02  19 2.02  74 2.02  27 2.02   3 3.20  51 3.20

  53  0.500  0.500  0.062-  63 2.00  32 2.02  24 2.02  69 2.02  77 2.02  54 3.20   6 3.20
  54  0.750  0.500  0.062-  64 2.00  69 2.02  70 2.02  77 2.02  78 2.02  53 3.20   5 3.20
  55  0.500  0.000  0.188-  81 1.99  73 2.00  67 2.02  22 2.02  75 2.02  30 2.02   8 3.20  56 3.20

  56  0.750  0.000  0.188-  82 1.99  74 2.00  67 2.02  75 2.02  76 2.02  68 2.02   7 3.20  55 3.20

  57  0.627  0.000  0.313-  89 1.99  85 2.00  92 2.00  82 2.01  88 2.02  81 2.05  58 3.14  12 3.23

  58  0.872  0.000  0.313-  89 1.99  86 2.00  93 2.00  82 2.01  43 2.02  35 2.05  57 3.14  11 3.22

  59  0.498  0.500  0.314-  79 1.92  48 2.01  40 2.01  71 2.03  85 2.04  92 2.04  14 3.17  60 3.23

  60  0.750  0.500  0.317-  80 1.79  85 2.03  92 2.03  86 2.03  93 2.03  72 2.10  59 3.23  13 3.23

  61  0.512  0.000  0.435-  88 1.94  83 1.95  90 1.95  46 2.12  38 2.12  62 3.11  16 3.36
  62  0.750  0.000  0.459-  94 1.75  91 1.97  84 1.97  83 1.97  90 1.97  89 2.55  61 3.11  15 3.11

  63  0.500  0.500  0.140-  53 2.00  49 2.02   2 2.02
  64  0.750  0.500  0.140-  54 2.00  50 2.02  49 2.02
  65  0.500  0.000  0.015-   4 2.02  51 2.02
  66  0.750  0.000  0.015-  51 2.02  52 2.02
  67  0.625  0.808  0.188-  49 2.00  55 2.02  56 2.02
  68  0.875  0.808  0.188-  50 2.00   7 2.02  56 2.02
  69  0.625  0.308  0.062-  51 2.00  53 2.02  54 2.02
  70  0.875  0.308  0.062-  52 2.00   5 2.02  54 2.02
  71  0.500  0.500  0.235-   2 2.02  49 2.02  59 2.03
  72  0.750  0.500  0.235-  49 2.02  50 2.02  60 2.10
  73  0.500  0.000  0.110-  55 2.00  51 2.02   4 2.02
  74  0.750  0.000  0.110-  56 2.00  52 2.02  51 2.02
  75  0.625  0.192  0.188-  49 2.00  55 2.02  56 2.02
  76  0.875  0.192  0.188-  50 2.00   7 2.02  56 2.02
  77  0.625  0.692  0.062-  51 2.00  53 2.02  54 2.02
  78  0.875  0.692  0.062-  52 2.00   5 2.02  54 2.02
  79  0.486  0.500  0.388-  59 1.92  10 1.94
  80  0.749  0.500  0.386-  60 1.79
  81  0.501  0.000  0.265-  55 1.99  12 2.02  57 2.05
  82  0.750  0.000  0.264-  56 1.99  58 2.01  57 2.01
  83  0.631  0.816  0.443-  61 1.95  62 1.97
  84  0.869  0.816  0.443-  15 1.95  62 1.97
  85  0.625  0.309  0.312-  57 2.00  60 2.03  59 2.04
  86  0.875  0.309  0.313-  58 2.00  60 2.03  13 2.04
  87  0.462  0.500  0.496-  10 1.80
  88  0.501  0.000  0.360-  61 1.94  57 2.02  12 2.03
  89  0.750  0.000  0.360-  58 1.99  57 1.99  62 2.55
  90  0.631  0.184  0.443-  61 1.95  62 1.97
  91  0.869  0.184  0.443-  15 1.95  62 1.97
  92  0.625  0.691  0.312-  57 2.00  60 2.03  59 2.04
  93  0.875  0.691  0.313-  58 2.00  60 2.03  13 2.04
  94  0.750  0.000  0.526-  62 1.75
 
  LATTYP: Found a simple orthorhombic cell.
 ALAT       =     6.4702430000
 B/A-ratio  =     1.9796060210
 C/A-ratio  =     4.0000000000
  
  Lattice vectors:
  
 A1 = (   0.0000000000,  -6.4702430000,   0.0000000000)
 A2 = ( -12.8085320000,   0.0000000000,   0.0000000000)
 A3 = (   0.0000000000,   0.0000000000, -25.8809720000)


Analysis of symmetry for initial positions (statically):
=====================================================================
 Subroutine PRICEL returns:
 Original cell was already a primitive cell.
 

 Routine SETGRP: Setting up the symmetry group for a 
 simple orthorhombic supercell.


 Subroutine GETGRP returns: Found  2 space group operations
 (whereof  2 operations were pure point group operations)
 out of a pool of  8 trial point group operations.


The static configuration has the point symmetry C_1h.


Analysis of symmetry for dynamics (positions and initial velocities):
=====================================================================
 Subroutine PRICEL returns:
 Original cell was already a primitive cell.
 

 Routine SETGRP: Setting up the symmetry group for a 
 simple orthorhombic supercell.


 Subroutine GETGRP returns: Found  2 space group operations
 (whereof  2 operations were pure point group operations)
 out of a pool of  8 trial point group operations.


The dynamic configuration has the point symmetry C_1h.


Analysis of constrained symmetry for selective dynamics:
=====================================================================
 Subroutine PRICEL returns:
 Original cell was already a primitive cell.
 

 Routine SETGRP: Setting up the symmetry group for a 
 simple orthorhombic supercell.


 Subroutine GETGRP returns: Found  2 space group operations
 (whereof  2 operations were pure point group operations)
 out of a pool of  8 trial point group operations.


The constrained configuration has the point symmetry C_1h.


Analysis of structural, dynamic, and magnetic symmetry:
=====================================================================
 Subroutine PRICEL returns:
 Original cell was already a primitive cell.
 

 Routine SETGRP: Setting up the symmetry group for a 
 simple orthorhombic supercell.


 Subroutine GETGRP returns: Found  2 space group operations
 (whereof  2 operations were pure point group operations)
 out of a pool of  8 trial point group operations.


The magnetic configuration has the point symmetry C_1h.


 Subroutine INISYM returns: Found  2 space group operations
 (whereof  2 operations are pure point group operations),
 and found     1 'primitive' translations

 
 
 KPOINTS: Automatic mesh                          

Automatic generation of k-mesh.
Space group operators:
 irot       det(A)        alpha          n_x          n_y          n_z        tau_x        tau_y        tau_z
    1     1.000000     0.000001     1.000000     0.000000     0.000000     0.000000     0.000000     0.000000
    2    -1.000000   180.000000     0.000000     1.000000     0.000000     0.000000     0.000000     0.000000
 
 Subroutine IBZKPT returns following result:
 ===========================================
 
 Found      4 irreducible k-points:
 
 Following reciprocal coordinates:
            Coordinates               Weight
  0.000000  0.000000  0.000000      1.000000
  0.333333  0.000000  0.000000      2.000000
  0.000000  0.333333  0.000000      2.000000
  0.333333  0.333333  0.000000      4.000000
 
 Following cartesian coordinates:
            Coordinates               Weight
  0.000000  0.000000  0.000000      1.000000
  0.026024  0.000000  0.000000      2.000000
  0.000000  0.051518  0.000000      2.000000
  0.026024  0.051518  0.000000      4.000000
 
 
 Subroutine IBZKPT_HF returns following result:
 ==============================================
 
 Found      9 k-points in 1st BZ
 the following      9 k-points will be used (e.g. in the exchange kernel)
 Following reciprocal coordinates:   # in IRBZ
  0.000000  0.000000  0.000000    0.11111111   1 t-inv F
  0.333333  0.000000  0.000000    0.11111111   2 t-inv F
  0.000000  0.333333  0.000000    0.11111111   3 t-inv F
  0.333333  0.333333  0.000000    0.11111111   4 t-inv F
  0.000000 -0.333333  0.000000    0.11111111   3 t-inv F
  0.333333 -0.333333  0.000000    0.11111111   4 t-inv F
 -0.333333  0.000000  0.000000    0.11111111   2 t-inv T
 -0.333333 -0.333333  0.000000    0.11111111   4 t-inv T
 -0.333333  0.333333  0.000000    0.11111111   4 t-inv T


--------------------------------------------------------------------------------------------------------




 Dimension of arrays:
   k-points           NKPTS =      4   k-points in BZ     NKDIM =      4   number of bands    NBANDS=    440
   number of dos      NEDOS =    301   number of ions     NIONS =     94
   non local maximal  LDIM  =      6   non local SUM 2l+1 LMDIM =     18
   total plane-waves  NPLWV = 362880
   max r-space proj   IRMAX =   2532   max aug-charges    IRDMAX=  12432
   dimension x,y,z NGX =    70 NGY =   36 NGZ =  144
   dimension x,y,z NGXF=   140 NGYF=   72 NGZF=  288
   support grid    NGXF=   140 NGYF=   72 NGZF=  288
   ions per type =              16  32  14  32
   NGX,Y,Z   is equivalent  to a cutoff of   9.09,  9.25,  9.25 a.u.
   NGXF,Y,Z  is equivalent  to a cutoff of  18.17, 18.50, 18.50 a.u.

 SYSTEM =  unknown system                          
 POSCAR =  Ir  O Ir  O                             

 Startparameter for this run:
   NWRITE =      2    write-flag & timer
   PREC   = normal    normal or accurate (medium, high low for compatibility)
   ISTART =      0    job   : 0-new  1-cont  2-samecut
   ICHARG =      2    charge: 1-file 2-atom 10-const
   ISPIN  =      2    spin polarized calculation?
   LNONCOLLINEAR =      F non collinear calculations
   LSORBIT =      F    spin-orbit coupling
   INIWAV =      1    electr: 0-lowe 1-rand  2-diag
   LASPH  =      F    aspherical Exc in radial PAW
   METAGGA=      F    non-selfconsistent MetaGGA calc.

 Electronic Relaxation 1
   ENCUT  =  500.0 eV  36.75 Ry    6.06 a.u.  23.35 11.80 47.19*2*pi/ulx,y,z
   ENINI  =  500.0     initial cutoff
   ENAUG  =  605.4 eV  augmentation charge cutoff
   NELM   =     60;   NELMIN=  4; NELMDL= -5     # of ELM steps 
   EDIFF  = 0.1E-04   stopping-criterion for ELM
   LREAL  =      T    real-space projection
   NLSPLINE    = F    spline interpolate recip. space projectors
   LCOMPAT=      F    compatible to vasp.4.4
   GGA_COMPAT  = T    GGA compatible to vasp.4.4-vasp.4.6
   LMAXPAW     = -100 max onsite density
   LMAXMIX     =    2 max onsite mixed and CHGCAR
   VOSKOWN=      0    Vosko Wilk Nusair interpolation
   ROPT   =   -0.00050  -0.00050  -0.00050  -0.00050
 Ionic relaxation
   EDIFFG = -.5E-01   stopping-criterion for IOM
   NSW    =   1165    number of steps for IOM
   NBLOCK =      1;   KBLOCK =   1165    inner block; outer block 
   IBRION =      5    ionic relax: 0-MD 1-quasi-New 2-CG
   NFREE  =      2    steps in history (QN), initial steepest desc. (CG)
   ISIF   =      2    stress and relaxation
   IWAVPR =     11    prediction:  0-non 1-charg 2-wave 3-comb
   ISYM   =      2    0-nonsym 1-usesym 2-fastsym
   LCORR  =      T    Harris-Foulkes like correction to forces

   POTIM  = 0.5000    time-step for ionic-motion
   TEIN   =    0.0    initial temperature
   TEBEG  =    0.0;   TEEND  =   0.0 temperature during run
   SMASS  =  -3.00    Nose mass-parameter (am)
   estimated Nose-frequenzy (Omega)   =  0.10E-29 period in steps =****** mass=  -0.375E-26a.u.
   SCALEE = 1.0000    scale energy and forces
   NPACO  =    256;   APACO  = 16.0  distance and # of slots for P.C.
   PSTRESS=    0.0 pullay stress

  Mass of Ions in am
   POMASS = 192.22 16.00192.22 16.00
  Ionic Valenz
   ZVAL   =   9.00  6.00  9.00  6.00
  Atomic Wigner-Seitz radii
   RWIGS  =  -1.00 -1.00 -1.00 -1.00
  virtual crystal weights 
   VCA    =   1.00  1.00  1.00  1.00
   NELECT =     654.0000    total number of electrons
   NUPDOWN=      -1.0000    fix difference up-down

 DOS related values:
   EMIN   =  10.00;   EMAX   =-10.00  energy-range for DOS
   EFERMI =   0.00
   ISMEAR =     0;   SIGMA  =   0.05  broadening in eV -4-tet -1-fermi 0-gaus

 Electronic relaxation 2 (details)
   IALGO  =     68    algorithm
   LDIAG  =      T    sub-space diagonalisation (order eigenvalues)
   LSUBROT=      F    optimize rotation matrix (better conditioning)
   TURBO    =      0    0=normal 1=particle mesh
   IRESTART =      0    0=no restart 2=restart with 2 vectors
   NREBOOT  =      0    no. of reboots
   NMIN     =      0    reboot dimension
   EREF     =   0.00    reference energy to select bands
   IMIX   =      4    mixing-type and parameters
     AMIX     =   0.40;   BMIX     =  1.00
     AMIX_MAG =   1.60;   BMIX_MAG =  1.00
     AMIN     =   0.10
     WC   =   100.;   INIMIX=   1;  MIXPRE=   1;  MAXMIX= -45

 Intra band minimization:
   WEIMIN = 0.0010     energy-eigenvalue tresh-hold
   EBREAK =  0.57E-08  absolut break condition
   DEPER  =   0.30     relativ break condition  

   TIME   =   0.40     timestep for ELM

  volume/ion in A,a.u.               =      22.82       153.98
  Fermi-wavevector in a.u.,A,eV,Ry     =   1.101879  2.082249 16.519341  1.214137
  Thomas-Fermi vector in A             =   2.238313
 
 Write flags
   LWAVE        =      F    write WAVECAR
   LDOWNSAMPLE  =      F    k-point downsampling of WAVECAR
   LCHARG       =      F    write CHGCAR
   LVTOT        =      F    write LOCPOT, total local potential
   LVHAR        =      F    write LOCPOT, Hartree potential only
   LELF         =      F    write electronic localiz. function (ELF)
   LORBIT       =      0    0 simple, 1 ext, 2 COOP (PROOUT), +10 PAW based schemes


 Dipole corrections
   LMONO  =      F    monopole corrections only (constant potential shift)
   LDIPOL =      F    correct potential (dipole corrections)
   IDIPOL =      0    1-x, 2-y, 3-z, 4-all directions 
   EPSILON=  1.0000000 bulk dielectric constant

 Exchange correlation treatment:
   GGA     =    RP    GGA type
   LEXCH   =     9    internal setting for exchange type
   VOSKOWN=      0    Vosko Wilk Nusair interpolation
   LHFCALC =     F    Hartree Fock is set to
   LHFONE  =     F    Hartree Fock one center treatment
   AEXX    =    0.0000 exact exchange contribution

 Linear response parameters
   LEPSILON=     F    determine dielectric tensor
   LRPA    =     F    only Hartree local field effects (RPA)
   LNABLA  =     F    use nabla operator in PAW spheres
   LVEL    =     F    velocity operator in full k-point grid
   LINTERFAST=   F  fast interpolation
   KINTER  =     0    interpolate to denser k-point grid
   CSHIFT  =0.1000    complex shift for real part using Kramers Kronig
   OMEGAMAX=  -1.0    maximum frequency
   DEG_THRESHOLD= 0.2000000E-02 threshold for treating states as degnerate
   RTIME   =   -0.100 relaxation time in fs
  (WPLASMAI=    0.000 imaginary part of plasma frequency in eV, 0.658/RTIME)
   DFIELD  = 0.0000000 0.0000000 0.0000000 field for delta impulse in time
 
 Orbital magnetization related:
   ORBITALMAG=     F  switch on orbital magnetization
   LCHIMAG   =     F  perturbation theory with respect to B field
   DQ        =  0.001000  dq finite difference perturbation B field
   LLRAUG    =     F  two centre corrections for induced B field



--------------------------------------------------------------------------------------------------------


 finite differences
   using selective dynamics as specified on POSCAR
   WARNING: If single coordinates had been selected the selection of coordinates
            is made according to the corresponding   d i r e c t   coordinates!
            Don't support selection of single cartesian coordinates -- sorry ...
  !
 charge density and potential will be updated during run
 spin polarized calculation
 RMM-DIIS sequential band-by-band and
  variant of blocked Davidson during initial phase
 perform sub-space diagonalisation
    before iterative eigenvector-optimisation
 modified Broyden-mixing scheme, WC =      100.0
 initial mixing is a Kerker type mixing with AMIX =  0.4000 and BMIX =      1.0000
 Hartree-type preconditioning will be used
 using additional bands          113
 real space projection scheme for non local part
 use partial core corrections
 calculate Harris-corrections to forces 
   (improved forces if not selfconsistent)
 use gradient corrections 
 use of overlap-Matrix (Vanderbilt PP)
 Gauss-broadening in eV      SIGMA  =   0.05


--------------------------------------------------------------------------------------------------------


  energy-cutoff  :      500.00
  volume of cell :     2144.87
      direct lattice vectors                 reciprocal lattice vectors
    12.808532000  0.000000000  0.000000000     0.078072959  0.000000000  0.000000000
     0.000000000  6.470243000  0.000000000     0.000000000  0.154553701  0.000000000
     0.000000000  0.000000000 25.880972000     0.000000000  0.000000000  0.038638425

  length of vectors
    12.808532000  6.470243000 25.880972000     0.078072959  0.154553701  0.038638425


 
 k-points in units of 2pi/SCALE and weight: Automatic mesh                          
   0.00000000  0.00000000  0.00000000       0.111
   0.02602432  0.00000000  0.00000000       0.222
   0.00000000  0.05151790  0.00000000       0.222
   0.02602432  0.05151790  0.00000000       0.444
 
 k-points in reciprocal lattice and weights: Automatic mesh                          
   0.00000000  0.00000000  0.00000000       0.111
   0.33333333  0.00000000  0.00000000       0.222
   0.00000000  0.33333333  0.00000000       0.222
   0.33333333  0.33333333  0.00000000       0.444
 
 position of ions in fractional coordinates (direct lattice) 
   0.12500000  0.50000000  0.18750000
   0.37500000  0.50000000  0.18750000
   0.12500000  0.00000000  0.06250000
   0.37500000  0.00000000  0.06250000
   0.00000000  0.50000000  0.06250000
   0.25000000  0.50000000  0.06250000
   0.00000000  0.00000000  0.18750000
   0.25000000  0.00000000  0.18750000
   0.12231505  0.50000000  0.43976043
   0.37779743  0.50000000  0.44023688
   0.12403061  0.00000000  0.31215714
   0.37556653  0.00000000  0.31194901
   0.00181858  0.50000000  0.31394036
   0.24977478  0.50000000  0.31200562
   0.98805526  0.00000000  0.43487741
   0.25022501  0.00000000  0.43429621
   0.00000000  0.50000000  0.13961000
   0.25000000  0.50000000  0.13961000
   0.00000000  0.00000000  0.01461000
   0.25000000  0.00000000  0.01461000
   0.12500000  0.80844000  0.18750000
   0.37500000  0.80844000  0.18750000
   0.12500000  0.30844000  0.06250000
   0.37500000  0.30844000  0.06250000
   0.00000000  0.50000000  0.23539000
   0.25000000  0.50000000  0.23539000
   0.00000000  0.00000000  0.11039000
   0.25000000  0.00000000  0.11039000
   0.12500000  0.19156000  0.18750000
   0.37500000  0.19156000  0.18750000
   0.12500000  0.69156000  0.06250000
   0.37500000  0.69156000  0.06250000
   0.01142191  0.50000000  0.38791284
   0.25014751  0.50000000  0.38800673
   0.99906786  0.00000000  0.26463942
   0.24973762  0.00000000  0.26438860
   0.12324063  0.81292891  0.43914900
   0.37703893  0.81291390  0.43943210
   0.12543909  0.30828611  0.31137654
   0.37388338  0.30822339  0.31057513
   0.03558929  0.50000000  0.49458909
   0.24984622  0.50000000  0.48105173
   0.99812961  0.00000000  0.36002973
   0.24995198  0.00000000  0.35946194
   0.12324063  0.18707109  0.43914900
   0.37703893  0.18708610  0.43943210
   0.12543909  0.69171389  0.31137654
   0.37388338  0.69177661  0.31057513
   0.62500000  0.50000000  0.18750000
   0.87500000  0.50000000  0.18750000
   0.62500000  0.00000000  0.06250000
   0.87500000  0.00000000  0.06250000
   0.50000000  0.50000000  0.06250000
   0.75000000  0.50000000  0.06250000
   0.50000000  0.00000000  0.18750000
   0.75000000  0.00000000  0.18750000
   0.62738065  0.00000000  0.31286594
   0.87232245  0.00000000  0.31295716
   0.49759120  0.50000000  0.31363102
   0.74968490  0.50000000  0.31668568
   0.51219800  0.00000000  0.43478469
   0.75006293  0.00000000  0.45899313
   0.50000000  0.50000000  0.13961000
   0.75000000  0.50000000  0.13961000
   0.50000000  0.00000000  0.01461000
   0.75000000  0.00000000  0.01461000
   0.62500000  0.80844000  0.18750000
   0.87500000  0.80844000  0.18750000
   0.62500000  0.30844000  0.06250000
   0.87500000  0.30844000  0.06250000
   0.50000000  0.50000000  0.23539000
   0.75000000  0.50000000  0.23539000
   0.50000000  0.00000000  0.11039000
   0.75000000  0.00000000  0.11039000
   0.62500000  0.19156000  0.18750000
   0.87500000  0.19156000  0.18750000
   0.62500000  0.69156000  0.06250000
   0.87500000  0.69156000  0.06250000
   0.48593772  0.50000000  0.38769327
   0.74889814  0.50000000  0.38576593
   0.50087158  0.00000000  0.26457155
   0.74999598  0.00000000  0.26439358
   0.63146370  0.81635021  0.44323363
   0.86861387  0.81642798  0.44333280
   0.62456737  0.30921563  0.31228096
   0.87493262  0.30922827  0.31263399
   0.46217528  0.50000000  0.49574355
   0.50145987  0.00000000  0.35987926
   0.74983900  0.00000000  0.36035002
   0.63146370  0.18364979  0.44323363
   0.86861387  0.18357202  0.44333280
   0.62456737  0.69078437  0.31228096
   0.87493262  0.69077173  0.31263399
   0.74991780  0.00000000  0.52649212
 
 position of ions in cartesian coordinates  (Angst):
   1.60106650  3.23512150  4.85268225
   4.80319950  3.23512150  4.85268225
   1.60106650  0.00000000  1.61756075
   4.80319950  0.00000000  1.61756075
   0.00000000  3.23512150  1.61756075
   3.20213300  3.23512150  1.61756075
   0.00000000  0.00000000  4.85268225
   3.20213300  0.00000000  4.85268225
   1.56667620  3.23512150 11.38142736
   4.83903049  3.23512150 11.39375844
   1.58865009  0.00000000  8.07893015
   4.81045591  0.00000000  8.07354357
   0.02329333  3.23512150  8.12508154
   3.19924829  3.23512150  8.07500870
  12.65553747  0.00000000 11.25505009
   3.20501499  0.00000000 11.24000801
   0.00000000  3.23512150  3.61324250
   3.20213300  3.23512150  3.61324250
   0.00000000  0.00000000  0.37812100
   3.20213300  0.00000000  0.37812100
   1.60106650  5.23080325  4.85268225
   4.80319950  5.23080325  4.85268225
   1.60106650  1.99568175  1.61756075
   4.80319950  1.99568175  1.61756075
   0.00000000  3.23512150  6.09212200
   3.20213300  3.23512150  6.09212200
   0.00000000  0.00000000  2.85700050
   3.20213300  0.00000000  2.85700050
   1.60106650  1.23943975  4.85268225
   4.80319950  1.23943975  4.85268225
   1.60106650  4.47456125  1.61756075
   4.80319950  4.47456125  1.61756075
   0.14629796  3.23512150 10.03956123
   3.20402235  3.23512150 10.04199121
  12.79659262  0.00000000  6.84912535
   3.19877225  0.00000000  6.84263403
   1.57853150  5.25984759 11.36560297
   4.82931521  5.25975045 11.37292999
   1.60669063  1.99468603  8.05872764
   4.78889726  1.99428024  8.03798616
   0.45584656  3.23512150 12.80044630
   3.20016331  3.23512150 12.45008633
  12.78457499  0.00000000  9.31791939
   3.20151795  0.00000000  9.30322447
   1.57853150  1.21039541 11.36560297
   4.82931521  1.21049255 11.37292999
   1.60669063  4.47555697  8.05872764
   4.78889726  4.47596276  8.03798616
   8.00533250  3.23512150  4.85268225
  11.20746550  3.23512150  4.85268225
   8.00533250  0.00000000  1.61756075
  11.20746550  0.00000000  1.61756075
   6.40426600  3.23512150  1.61756075
   9.60639900  3.23512150  1.61756075
   6.40426600  0.00000000  4.85268225
   9.60639900  0.00000000  4.85268225
   8.03582518  0.00000000  8.09727457
  11.17316996  0.00000000  8.09963537
   6.37341279  3.23512150  8.11707558
   9.60236304  3.23512150  8.19613316
   6.56050445  0.00000000 11.25265035
   9.60720507  0.00000000 11.87918837
   6.40426600  3.23512150  3.61324250
   9.60639900  3.23512150  3.61324250
   6.40426600  0.00000000  0.37812100
   9.60639900  0.00000000  0.37812100
   8.00533250  5.23080325  4.85268225
  11.20746550  5.23080325  4.85268225
   8.00533250  1.99568175  1.61756075
  11.20746550  1.99568175  1.61756075
   6.40426600  3.23512150  6.09212200
   9.60639900  3.23512150  6.09212200
   6.40426600  0.00000000  2.85700050
   9.60639900  0.00000000  2.85700050
   8.00533250  1.23943975  4.85268225
  11.20746550  1.23943975  4.85268225
   8.00533250  4.47456125  1.61756075
  11.20746550  4.47456125  1.61756075
   6.22414880  3.23512150 10.03387867
   9.59228583  3.23512150  9.98399730
   6.41542963  0.00000000  6.84736881
   9.60634746  0.00000000  6.84276296
   8.08812295  5.28198425 11.47131725
  11.12566850  5.28248742 11.47388381
   7.99979118  2.00070025  8.08213487
  11.20660252  2.00078206  8.09127148
   5.91978690  3.23512150 12.83032493
   6.42296473  0.00000000  9.31402507
   9.60433680  0.00000000  9.32620885
   8.08812295  1.18825875 11.47131725
  11.12566850  1.18775558 11.47388381
   7.99979118  4.46954275  8.08213487
  11.20660252  4.46946094  8.09127148
   9.60534617  0.00000000 13.62612794
 


--------------------------------------------------------------------------------------------------------


 k-point  1 :   0.0000 0.0000 0.0000  plane waves:   54455
 k-point  2 :   0.3333 0.0000 0.0000  plane waves:   54459
 k-point  3 :   0.0000 0.3333 0.0000  plane waves:   54468
 k-point  4 :   0.3333 0.3333 0.0000  plane waves:   54434

 maximum and minimum number of plane-waves per node :     54468    54434

 maximum number of plane-waves:     54468
 maximum index in each direction: 
   IXMAX=   23   IYMAX=   11   IZMAX=   47
   IXMIN=  -23   IYMIN=  -12   IZMIN=  -47


 serial   3D FFT for wavefunctions
 parallel 3D FFT for charge:
    minimum data exchange during FFTs selected (reduces bandwidth)


 total amount of memory used by VASP MPI-rank0   171119. kBytes
=======================================================================

   base      :      30000. kBytes
   nonlr-proj:      18653. kBytes
   fftplans  :       4196. kBytes
   grid      :      37119. kBytes
   one-center:       2923. kBytes
   wavefun   :      78228. kBytes
 
     INWAV:  cpu time    0.0000: real time    0.0003
 Broyden mixing: mesh for mixing (old mesh)
   NGX = 47   NGY = 23   NGZ = 95
  (NGX  =140   NGY  = 72   NGZ  =288)
  gives a total of 102695 points

 initial charge density was supplied:
 charge density of overlapping atoms calculated
 number of electron     654.0000000 magnetization      56.4000000
 keeping initial charge density in first step


--------------------------------------------------------------------------------------------------------


 Maximum index for non-local projection operator         2439
 Maximum index for augmentation-charges          641 (set IRDMAX)


--------------------------------------------------------------------------------------------------------


 First call to EWALD:  gamma=   0.137
 Maximum number of real-space cells 3x 5x 2
 Maximum number of reciprocal cells 3x 2x 5

    FEWALD:  cpu time    0.0042: real time    0.0042


--------------------------------------- Iteration      1(   1)  ---------------------------------------


    POTLOK:  cpu time    0.1428: real time    0.1493
    SETDIJ:  cpu time    0.0198: real time    0.0221
     EDDAV:  cpu time   15.2302: real time   15.3149
       DOS:  cpu time    0.0012: real time    0.0024
    --------------------------------------------
      LOOP:  cpu time   15.3939: real time   15.4887

 eigenvalue-minimisations  :  7040
 total energy-change (2. order) : 0.6970497E+04  (-0.2925845E+05)
 number of electron     654.0000000 magnetization      56.4000000
 augmentation part      654.0000000 magnetization      56.4000000

 Free energy of the ion-electron system (eV)
  ---------------------------------------------------
  alpha Z        PSCENC =      1610.84354132
  Ewald energy   TEWEN  =    221435.02234459
  -Hartree energ DENC   =   -265193.13635550
  -exchange      EXHF   =         0.00000000
  -V(xc)+E(xc)   XCENC  =      1232.73346354
  PAW double counting   =     38757.70684930   -37617.87723502
  entropy T*S    EENTRO =        -0.05939142
  eigenvalues    EBANDS =      2295.26160561
  atomic energy  EATOM  =     44450.00241848
  Solvation  Ediel_sol  =         0.00000000
  ---------------------------------------------------
  free energy    TOTEN  =      6970.49724092 eV

  energy without entropy =     6970.55663233  energy(sigma->0) =     6970.52693662


--------------------------------------------------------------------------------------------------------




--------------------------------------- Iteration      1(   2)  ---------------------------------------


     EDDAV:  cpu time   15.7293: real time   15.7857
       DOS:  cpu time    0.0009: real time    0.0008
    --------------------------------------------
      LOOP:  cpu time   15.7302: real time   15.7865

 eigenvalue-minimisations  :  7360
 total energy-change (2. order) :-0.6579623E+04  (-0.6005336E+04)
 number of electron     654.0000000 magnetization      56.4000000
 augmentation part      654.0000000 magnetization      56.4000000

 Free energy of the ion-electron system (eV)
  ---------------------------------------------------
  alpha Z        PSCENC =      1610.84354132
  Ewald energy   TEWEN  =    221435.02234459
  -Hartree energ DENC   =   -265193.13635550
  -exchange      EXHF   =         0.00000000
  -V(xc)+E(xc)   XCENC  =      1232.73346354
  PAW double counting   =     38757.70684930   -37617.87723502
  entropy T*S    EENTRO =        -0.04405503
  eigenvalues    EBANDS =     -4284.37630778
  atomic energy  EATOM  =     44450.00241848
  Solvation  Ediel_sol  =         0.00000000
  ---------------------------------------------------
  free energy    TOTEN  =       390.87466391 eV

  energy without entropy =      390.91871894  energy(sigma->0) =      390.89669142


--------------------------------------------------------------------------------------------------------




--------------------------------------- Iteration      1(   3)  ---------------------------------------


     EDDAV:  cpu time   18.8658: real time   18.9220
       DOS:  cpu time    0.0008: real time    0.0008
    --------------------------------------------
      LOOP:  cpu time   18.8666: real time   18.9228

 eigenvalue-minimisations  :  9160
 total energy-change (2. order) :-0.1076882E+04  (-0.1033596E+04)
 number of electron     654.0000000 magnetization      56.4000000
 augmentation part      654.0000000 magnetization      56.4000000

 Free energy of the ion-electron system (eV)
  ---------------------------------------------------
  alpha Z        PSCENC =      1610.84354132
  Ewald energy   TEWEN  =    221435.02234459
  -Hartree energ DENC   =   -265193.13635550
  -exchange      EXHF   =         0.00000000
  -V(xc)+E(xc)   XCENC  =      1232.73346354
  PAW double counting   =     38757.70684930   -37617.87723502
  entropy T*S    EENTRO =        -0.07463483
  eigenvalues    EBANDS =     -5361.22734106
  atomic energy  EATOM  =     44450.00241848
  Solvation  Ediel_sol  =         0.00000000
  ---------------------------------------------------
  free energy    TOTEN  =      -686.00694916 eV

  energy without entropy =     -685.93231434  energy(sigma->0) =     -685.96963175


--------------------------------------------------------------------------------------------------------




--------------------------------------- Iteration      1(   4)  ---------------------------------------


     EDDAV:  cpu time   17.8074: real time   17.8624
       DOS:  cpu time    0.0008: real time    0.0008
    --------------------------------------------
      LOOP:  cpu time   17.8082: real time   17.8632

 eigenvalue-minimisations  :  8560
 total energy-change (2. order) :-0.4299685E+02  (-0.4220930E+02)
 number of electron     654.0000000 magnetization      56.4000000
 augmentation part      654.0000000 magnetization      56.4000000

 Free energy of the ion-electron system (eV)
  ---------------------------------------------------
  alpha Z        PSCENC =      1610.84354132
  Ewald energy   TEWEN  =    221435.02234459
  -Hartree energ DENC   =   -265193.13635550
  -exchange      EXHF   =         0.00000000
  -V(xc)+E(xc)   XCENC  =      1232.73346354
  PAW double counting   =     38757.70684930   -37617.87723502
  entropy T*S    EENTRO =        -0.08673260
  eigenvalues    EBANDS =     -5404.21209609
  atomic energy  EATOM  =     44450.00241848
  Solvation  Ediel_sol  =         0.00000000
  ---------------------------------------------------
  free energy    TOTEN  =      -729.00380198 eV

  energy without entropy =     -728.91706937  energy(sigma->0) =     -728.96043567


--------------------------------------------------------------------------------------------------------




--------------------------------------- Iteration      1(   5)  ---------------------------------------


     EDDAV:  cpu time   17.9071: real time   17.9585
       DOS:  cpu time    0.0008: real time    0.0008
    CHARGE:  cpu time    0.7304: real time    0.7324
    MIXING:  cpu time    0.0031: real time    0.0043
    --------------------------------------------
      LOOP:  cpu time   18.6415: real time   18.6961

 eigenvalue-minimisations  :  8600
 total energy-change (2. order) :-0.1162605E+01  (-0.1160077E+01)
 number of electron     654.0000385 magnetization      52.7573437
 augmentation part      111.9809349 magnetization      43.8541351

 Broyden mixing:
  rms(total) = 0.17407E+02    rms(broyden)= 0.17406E+02
  rms(prec ) = 0.17638E+02
  weight for this iteration     100.00

 Free energy of the ion-electron system (eV)
  ---------------------------------------------------
  alpha Z        PSCENC =      1610.84354132
  Ewald energy   TEWEN  =    221435.02234459
  -Hartree energ DENC   =   -265193.13635550
  -exchange      EXHF   =         0.00000000
  -V(xc)+E(xc)   XCENC  =      1232.73346354
  PAW double counting   =     38757.70684930   -37617.87723502
  entropy T*S    EENTRO =        -0.08672593
  eigenvalues    EBANDS =     -5405.37470773
  atomic energy  EATOM  =     44450.00241848
  Solvation  Ediel_sol  =         0.00000000
  ---------------------------------------------------
  free energy    TOTEN  =      -730.16640695 eV

  energy without entropy =     -730.07968101  energy(sigma->0) =     -730.12304398


--------------------------------------------------------------------------------------------------------




--------------------------------------- Iteration      1(   6)  ---------------------------------------


    POTLOK:  cpu time    0.1157: real time    0.1274
    SETDIJ:  cpu time    0.0197: real time    0.0198
    EDDIAG:  cpu time    3.0216: real time    3.0322
  RMM-DIIS:  cpu time    8.2299: real time    8.2533
    ORTHCH:  cpu time    0.6954: real time    0.6971
       DOS:  cpu time    0.0008: real time    0.0008
    CHARGE:  cpu time    0.7255: real time    0.7275
    MIXING:  cpu time    0.0030: real time    0.0031
    --------------------------------------------
      LOOP:  cpu time   12.8116: real time   12.8612

 eigenvalue-minimisations  :  7051
 total energy-change (2. order) : 0.1297422E+03  (-0.6912743E+02)
 number of electron     654.0000373 magnetization      49.6521779
 augmentation part      122.2971013 magnetization      37.9183100

 Broyden mixing:
  rms(total) = 0.10629E+02    rms(broyden)= 0.10627E+02
  rms(prec ) = 0.10927E+02
  weight for this iteration     100.00

 eigenvalues of (default mixing * dielectric matrix)
  average eigenvalue GAMMA=   0.9640
  0.9640

 Free energy of the ion-electron system (eV)
  ---------------------------------------------------
  alpha Z        PSCENC =      1610.84354132
  Ewald energy   TEWEN  =    221435.02234459
  -Hartree energ DENC   =   -265543.14840939
  -exchange      EXHF   =         0.00000000
  -V(xc)+E(xc)   XCENC  =      1314.13990598
  PAW double counting   =     46358.34118171   -45280.85228795
  entropy T*S    EENTRO =        -0.08180488
  eigenvalues    EBANDS =     -4944.69105631
  atomic energy  EATOM  =     44450.00241848
  Solvation  Ediel_sol  =         0.00000000
  ---------------------------------------------------
  free energy    TOTEN  =      -600.42416646 eV

  energy without entropy =     -600.34236157  energy(sigma->0) =     -600.38326401


--------------------------------------------------------------------------------------------------------




--------------------------------------- Iteration      1(   7)  ---------------------------------------


    POTLOK:  cpu time    0.1150: real time    0.1155
    SETDIJ:  cpu time    0.0199: real time    0.0199
    EDDIAG:  cpu time    3.0238: real time    3.0319
  RMM-DIIS:  cpu time    8.2228: real time    8.2471
    ORTHCH:  cpu time    0.6947: real time    0.6966
       DOS:  cpu time    0.0008: real time    0.0008
    CHARGE:  cpu time    0.7224: real time    0.7244
    MIXING:  cpu time    0.0028: real time    0.0028
    --------------------------------------------
      LOOP:  cpu time   12.8021: real time   12.8390

 eigenvalue-minimisations  :  7054
 total energy-change (2. order) :-0.7400013E+02  (-0.2423804E+02)
 number of electron     654.0000389 magnetization      47.3991188
 augmentation part      115.7088285 magnetization      36.8264837

 Broyden mixing:
  rms(total) = 0.12706E+02    rms(broyden)= 0.12704E+02
  rms(prec ) = 0.13767E+02
  weight for this iteration     100.00

 eigenvalues of (default mixing * dielectric matrix)
  average eigenvalue GAMMA=   0.8409
  1.3347  0.3471

 Free energy of the ion-electron system (eV)
  ---------------------------------------------------
  alpha Z        PSCENC =      1610.84354132
  Ewald energy   TEWEN  =    221435.02234459
  -Hartree energ DENC   =   -266039.48730639
  -exchange      EXHF   =         0.00000000
  -V(xc)+E(xc)   XCENC  =      1281.88847937
  PAW double counting   =     51479.90603101   -50408.39678497
  entropy T*S    EENTRO =        -0.06718898
  eigenvalues    EBANDS =     -4484.13583566
  atomic energy  EATOM  =     44450.00241848
  Solvation  Ediel_sol  =         0.00000000
  ---------------------------------------------------
  free energy    TOTEN  =      -674.42430124 eV

  energy without entropy =     -674.35711226  energy(sigma->0) =     -674.39070675


--------------------------------------------------------------------------------------------------------




--------------------------------------- Iteration      1(   8)  ---------------------------------------


    POTLOK:  cpu time    0.1161: real time    0.1180
    SETDIJ:  cpu time    0.0198: real time    0.0199
    EDDIAG:  cpu time    3.0338: real time    3.0431
  RMM-DIIS:  cpu time    8.2439: real time    8.2682
    ORTHCH:  cpu time    0.6945: real time    0.6963
       DOS:  cpu time    0.0009: real time    0.0009
    CHARGE:  cpu time    0.7198: real time    0.7218
    MIXING:  cpu time    0.0033: real time    0.0033
    --------------------------------------------
      LOOP:  cpu time   12.8320: real time   12.8714

 eigenvalue-minimisations  :  7046
 total energy-change (2. order) :-0.6467900E+02  (-0.5687399E+01)
 number of electron     654.0000350 magnetization      45.1568931
 augmentation part      115.6021755 magnetization      40.0739762

 Broyden mixing:
  rms(total) = 0.15371E+02    rms(broyden)= 0.15370E+02
  rms(prec ) = 0.18488E+02
  weight for this iteration     100.00

 eigenvalues of (default mixing * dielectric matrix)
  average eigenvalue GAMMA=   0.7778
  1.7426  0.4122  0.1786

 Free energy of the ion-electron system (eV)
  ---------------------------------------------------
  alpha Z        PSCENC =      1610.84354132
  Ewald energy   TEWEN  =    221435.02234459
  -Hartree energ DENC   =   -265501.24190560
  -exchange      EXHF   =         0.00000000
  -V(xc)+E(xc)   XCENC  =      1283.80289605
  PAW double counting   =     54626.00978846   -53565.58761475
  entropy T*S    EENTRO =        -0.02906385
  eigenvalues    EBANDS =     -5077.92570155
  atomic energy  EATOM  =     44450.00241848
  Solvation  Ediel_sol  =         0.00000000
  ---------------------------------------------------
  free energy    TOTEN  =      -739.10329686 eV

  energy without entropy =     -739.07423301  energy(sigma->0) =     -739.08876493


--------------------------------------------------------------------------------------------------------




--------------------------------------- Iteration      1(   9)  ---------------------------------------


    POTLOK:  cpu time    0.1150: real time    0.1191
    SETDIJ:  cpu time    0.0199: real time    0.0199
    EDDIAG:  cpu time    3.0227: real time    3.0307
  RMM-DIIS:  cpu time    8.2199: real time    8.2469
    ORTHCH:  cpu time    0.6950: real time    0.6974
       DOS:  cpu time    0.0008: real time    0.0008
    CHARGE:  cpu time    0.7181: real time    0.7202
    MIXING:  cpu time    0.0034: real time    0.0054
    --------------------------------------------
      LOOP:  cpu time   12.7948: real time   12.8404

 eigenvalue-minimisations  :  7040
 total energy-change (2. order) : 0.7550047E+02  (-0.4341669E+01)
 number of electron     654.0000412 magnetization      42.0972881
 augmentation part      116.1294127 magnetization      36.9287503

 Broyden mixing:
  rms(total) = 0.83667E+01    rms(broyden)= 0.83651E+01
  rms(prec ) = 0.10859E+02
  weight for this iteration     100.00

 eigenvalues of (default mixing * dielectric matrix)
  average eigenvalue GAMMA=   0.7838
  2.1018  0.4474  0.4474  0.1386

 Free energy of the ion-electron system (eV)
  ---------------------------------------------------
  alpha Z        PSCENC =      1610.84354132
  Ewald energy   TEWEN  =    221435.02234459
  -Hartree energ DENC   =   -265503.73972228
  -exchange      EXHF   =         0.00000000
  -V(xc)+E(xc)   XCENC  =      1289.93386127
  PAW double counting   =     57548.80099078   -56499.70832040
  entropy T*S    EENTRO =        -0.04371274
  eigenvalues    EBANDS =     -4994.71422733
  atomic energy  EATOM  =     44450.00241848
  Solvation  Ediel_sol  =         0.00000000
  ---------------------------------------------------
  free energy    TOTEN  =      -663.60282632 eV

  energy without entropy =     -663.55911358  energy(sigma->0) =     -663.58096995


--------------------------------------------------------------------------------------------------------




--------------------------------------- Iteration      1(  10)  ---------------------------------------


    POTLOK:  cpu time    0.1138: real time    0.1143
    SETDIJ:  cpu time    0.0197: real time    0.0197
    EDDIAG:  cpu time    3.0268: real time    3.0348
  RMM-DIIS:  cpu time    8.2366: real time    8.2591
    ORTHCH:  cpu time    0.6937: real time    0.6962
       DOS:  cpu time    0.0008: real time    0.0008
    CHARGE:  cpu time    0.7230: real time    0.7248
    MIXING:  cpu time    0.0034: real time    0.0034
    --------------------------------------------
      LOOP:  cpu time   12.8178: real time   12.8532

 eigenvalue-minimisations  :  7040
 total energy-change (2. order) : 0.1686817E+02  (-0.8828277E+01)
 number of electron     654.0000343 magnetization      40.1763596
 augmentation part      116.2566506 magnetization      33.5405360

 Broyden mixing:
  rms(total) = 0.13189E+02    rms(broyden)= 0.13188E+02
  rms(prec ) = 0.15116E+02
  weight for this iteration     100.00

 eigenvalues of (default mixing * dielectric matrix)
  average eigenvalue GAMMA=   0.7390
  2.3699  0.5087  0.5087  0.1992  0.1086

 Free energy of the ion-electron system (eV)
  ---------------------------------------------------
  alpha Z        PSCENC =      1610.84354132
  Ewald energy   TEWEN  =    221435.02234459
  -Hartree energ DENC   =   -265850.93020568
  -exchange      EXHF   =         0.00000000
  -V(xc)+E(xc)   XCENC  =      1296.89111622
  PAW double counting   =     60293.57629882   -59256.37518623
  entropy T*S    EENTRO =        -0.06006892
  eigenvalues    EBANDS =     -4625.70491465
  atomic energy  EATOM  =     44450.00241848
  Solvation  Ediel_sol  =         0.00000000
  ---------------------------------------------------
  free energy    TOTEN  =      -646.73465605 eV

  energy without entropy =     -646.67458713  energy(sigma->0) =     -646.70462159


--------------------------------------------------------------------------------------------------------




--------------------------------------- Iteration      1(  11)  ---------------------------------------


    POTLOK:  cpu time    0.1170: real time    0.1265
    SETDIJ:  cpu time    0.0197: real time    0.0198
    EDDIAG:  cpu time    3.0253: real time    3.0354
  RMM-DIIS:  cpu time    8.2437: real time    8.2661
    ORTHCH:  cpu time    0.6932: real time    0.6951
       DOS:  cpu time    0.0008: real time    0.0008
    CHARGE:  cpu time    0.7258: real time    0.7276
    MIXING:  cpu time    0.0037: real time    0.0037
    --------------------------------------------
      LOOP:  cpu time   12.8293: real time   12.8750

 eigenvalue-minimisations  :  7060
 total energy-change (2. order) : 0.5386688E+02  (-0.1976214E+01)
 number of electron     654.0000361 magnetization      39.6029425
 augmentation part      117.0002921 magnetization      32.6400433

 Broyden mixing:
  rms(total) = 0.74813E+01    rms(broyden)= 0.74808E+01
  rms(prec ) = 0.89917E+01
  weight for this iteration     100.00

 eigenvalues of (default mixing * dielectric matrix)
  average eigenvalue GAMMA=   0.6653
  2.3390  0.4666  0.3930  0.3930  0.2784  0.1215

 Free energy of the ion-electron system (eV)
  ---------------------------------------------------
  alpha Z        PSCENC =      1610.84354132
  Ewald energy   TEWEN  =    221435.02234459
  -Hartree energ DENC   =   -265562.55900137
  -exchange      EXHF   =         0.00000000
  -V(xc)+E(xc)   XCENC  =      1299.64180346
  PAW double counting   =     61596.13183454   -60563.54951521
  entropy T*S    EENTRO =        -0.08383989
  eigenvalues    EBANDS =     -4858.31736005
  atomic energy  EATOM  =     44450.00241848
  Solvation  Ediel_sol  =         0.00000000
  ---------------------------------------------------
  free energy    TOTEN  =      -592.86777413 eV

  energy without entropy =     -592.78393424  energy(sigma->0) =     -592.82585419


--------------------------------------------------------------------------------------------------------




--------------------------------------- Iteration      1(  12)  ---------------------------------------


    POTLOK:  cpu time    0.1156: real time    0.1162
    SETDIJ:  cpu time    0.0199: real time    0.0199
    EDDIAG:  cpu time    3.0728: real time    3.0950
  RMM-DIIS:  cpu time    8.2438: real time    8.2666
    ORTHCH:  cpu time    0.6961: real time    0.6978
       DOS:  cpu time    0.0008: real time    0.0008
    CHARGE:  cpu time    0.7233: real time    0.7254
    MIXING:  cpu time    0.0039: real time    0.0039
    --------------------------------------------
      LOOP:  cpu time   12.8761: real time   12.9256

 eigenvalue-minimisations  :  7043
 total energy-change (2. order) : 0.1231828E+02  (-0.1430937E+01)
 number of electron     654.0000384 magnetization      39.0576131
 augmentation part      117.0753261 magnetization      32.0685135

 Broyden mixing:
  rms(total) = 0.44899E+01    rms(broyden)= 0.44876E+01
  rms(prec ) = 0.52010E+01
  weight for this iteration     100.00

 eigenvalues of (default mixing * dielectric matrix)
  average eigenvalue GAMMA=   0.6086
  2.1042  0.5913  0.4486  0.4486  0.3417  0.2031  0.1225

 Free energy of the ion-electron system (eV)
  ---------------------------------------------------
  alpha Z        PSCENC =      1610.84354132
  Ewald energy   TEWEN  =    221435.02234459
  -Hartree energ DENC   =   -265707.42744685
  -exchange      EXHF   =         0.00000000
  -V(xc)+E(xc)   XCENC  =      1296.87119822
  PAW double counting   =     61063.73779309   -60030.94755499
  entropy T*S    EENTRO =        -0.05986088
  eigenvalues    EBANDS =     -4698.59192731
  atomic energy  EATOM  =     44450.00241848
  Solvation  Ediel_sol  =         0.00000000
  ---------------------------------------------------
  free energy    TOTEN  =      -580.54949434 eV

  energy without entropy =     -580.48963346  energy(sigma->0) =     -580.51956390


--------------------------------------------------------------------------------------------------------




--------------------------------------- Iteration      1(  13)  ---------------------------------------


    POTLOK:  cpu time    0.1143: real time    0.1168
    SETDIJ:  cpu time    0.0198: real time    0.0198
    EDDIAG:  cpu time    3.0235: real time    3.0321
  RMM-DIIS:  cpu time    8.2478: real time    8.2713
    ORTHCH:  cpu time    0.6936: real time    0.6954
       DOS:  cpu time    0.0008: real time    0.0008
    CHARGE:  cpu time    0.7228: real time    0.7248
    MIXING:  cpu time    0.0042: real time    0.0042
    --------------------------------------------
      LOOP:  cpu time   12.8269: real time   12.8652

 eigenvalue-minimisations  :  7040
 total energy-change (2. order) : 0.7794358E+01  (-0.8217070E+00)
 number of electron     654.0000396 magnetization      38.5363145
 augmentation part      117.4133143 magnetization      31.1932144

 Broyden mixing:
  rms(total) = 0.40729E+01    rms(broyden)= 0.40709E+01
  rms(prec ) = 0.46346E+01
  weight for this iteration     100.00

 eigenvalues of (default mixing * dielectric matrix)
  average eigenvalue GAMMA=   0.5660
  2.0818  0.5793  0.4685  0.4685  0.3142  0.3142  0.1216  0.1795

 Free energy of the ion-electron system (eV)
  ---------------------------------------------------
  alpha Z        PSCENC =      1610.84354132
  Ewald energy   TEWEN  =    221435.02234459
  -Hartree energ DENC   =   -265475.40462442
  -exchange      EXHF   =         0.00000000
  -V(xc)+E(xc)   XCENC  =      1293.93975550
  PAW double counting   =     59928.96912073   -58893.72863920
  entropy T*S    EENTRO =        -0.07004813
  eigenvalues    EBANDS =     -4922.32900548
  atomic energy  EATOM  =     44450.00241848
  Solvation  Ediel_sol  =         0.00000000
  ---------------------------------------------------
  free energy    TOTEN  =      -572.75513662 eV

  energy without entropy =     -572.68508848  energy(sigma->0) =     -572.72011255


--------------------------------------------------------------------------------------------------------




--------------------------------------- Iteration      1(  14)  ---------------------------------------


    POTLOK:  cpu time    0.1149: real time    0.1155
    SETDIJ:  cpu time    0.0198: real time    0.0198
    EDDIAG:  cpu time    3.0217: real time    3.0298
  RMM-DIIS:  cpu time    8.2211: real time    8.2451
    ORTHCH:  cpu time    0.6939: real time    0.6957
       DOS:  cpu time    0.0009: real time    0.0009
    CHARGE:  cpu time    0.7265: real time    0.7285
    MIXING:  cpu time    0.0050: real time    0.0050
    --------------------------------------------
      LOOP:  cpu time   12.8037: real time   12.8404

 eigenvalue-minimisations  :  7052
 total energy-change (2. order) : 0.3235496E+01  (-0.2938881E+00)
 number of electron     654.0000388 magnetization      38.0900408
 augmentation part      117.1582813 magnetization      30.7520159

 Broyden mixing:
  rms(total) = 0.28835E+01    rms(broyden)= 0.28825E+01
  rms(prec ) = 0.29976E+01
  weight for this iteration     100.00

 eigenvalues of (default mixing * dielectric matrix)
  average eigenvalue GAMMA=   0.5387
  1.9850  0.5513  0.5513  0.5729  0.3319  0.3319  0.1218  0.2157  0.1864

 Free energy of the ion-electron system (eV)
  ---------------------------------------------------
  alpha Z        PSCENC =      1610.84354132
  Ewald energy   TEWEN  =    221435.02234459
  -Hartree energ DENC   =   -265500.60692962
  -exchange      EXHF   =         0.00000000
  -V(xc)+E(xc)   XCENC  =      1293.01684181
  PAW double counting   =     59796.00355629   -58760.97971877
  entropy T*S    EENTRO =        -0.05637364
  eigenvalues    EBANDS =     -4892.76532105
  atomic energy  EATOM  =     44450.00241848
  Solvation  Ediel_sol  =         0.00000000
  ---------------------------------------------------
  free energy    TOTEN  =      -569.51964060 eV

  energy without entropy =     -569.46326696  energy(sigma->0) =     -569.49145378


--------------------------------------------------------------------------------------------------------




--------------------------------------- Iteration      1(  15)  ---------------------------------------


    POTLOK:  cpu time    0.1158: real time    0.1195
    SETDIJ:  cpu time    0.0200: real time    0.0200
    EDDIAG:  cpu time    3.0244: real time    3.0325
  RMM-DIIS:  cpu time    8.2328: real time    8.2604
    ORTHCH:  cpu time    0.6936: real time    0.6955
       DOS:  cpu time    0.0008: real time    0.0008
    CHARGE:  cpu time    0.7239: real time    0.7259
    MIXING:  cpu time    0.0050: real time    0.0050
    --------------------------------------------
      LOOP:  cpu time   12.8164: real time   12.8596

 eigenvalue-minimisations  :  7040
 total energy-change (2. order) :-0.7610691E+00  (-0.9552770E-01)
 number of electron     654.0000389 magnetization      37.6937859
 augmentation part      117.1614170 magnetization      29.8119853

 Broyden mixing:
  rms(total) = 0.26559E+01    rms(broyden)= 0.26557E+01
  rms(prec ) = 0.27614E+01
  weight for this iteration     100.00

 eigenvalues of (default mixing * dielectric matrix)
  average eigenvalue GAMMA=   0.5290
  1.9063  0.6381  0.6381  0.5507  0.4049  0.4049  0.2331  0.2331  0.1215  0.1593

 Free energy of the ion-electron system (eV)
  ---------------------------------------------------
  alpha Z        PSCENC =      1610.84354132
  Ewald energy   TEWEN  =    221435.02234459
  -Hartree energ DENC   =   -265456.80042666
  -exchange      EXHF   =         0.00000000
[...]
      8.088123  5.281984 11.471317            0           0           0  
     11.125669  5.282487 11.473884            0           0           0  
      7.999791  2.000700  8.082135            0           0           0  
     11.206603  2.000782  8.091271            0           0           0  
      5.919787  3.235121 12.830325            0           0           0  
      6.422965  0.000000  9.314025            0           0           0  
      9.604337  0.000000  9.326209            0           0           0  
      8.088123  1.188259 11.471317            0           0           0  
     11.125669  1.187756 11.473884            0           0           0  
      7.999791  4.469543  8.082135            0           0           0  
     11.206603  4.469461  8.091271            0           0           0  
      9.605346  0.000000 13.626128    -0.003270   -0.000214    0.999995  
 
   2 f  =    8.307007 THz    52.194462 2PiTHz  277.091907 cm-1    34.355030 meV
             X         Y         Z           dx          dy          dz
      1.601066  3.235121  4.852682            0           0           0  
      4.803199  3.235121  4.852682            0           0           0  
      1.601066  0.000000  1.617561            0           0           0  
      4.803199  0.000000  1.617561            0           0           0  
      0.000000  3.235121  1.617561            0           0           0  
      3.202133  3.235121  1.617561            0           0           0  
      0.000000  0.000000  4.852682            0           0           0  
      3.202133  0.000000  4.852682            0           0           0  
      1.566676  3.235121 11.381427            0           0           0  
      4.839030  3.235121 11.393758            0           0           0  
      1.588650  0.000000  8.078930            0           0           0  
      4.810456  0.000000  8.073544            0           0           0  
      0.023293  3.235121  8.125082            0           0           0  
      3.199248  3.235121  8.075009            0           0           0  
     12.655537  0.000000 11.255050            0           0           0  
      3.205015  0.000000 11.240008            0           0           0  
      0.000000  3.235121  3.613243            0           0           0  
      3.202133  3.235121  3.613243            0           0           0  
      0.000000  0.000000  0.378121            0           0           0  
      3.202133  0.000000  0.378121            0           0           0  
      1.601066  5.230803  4.852682            0           0           0  
      4.803199  5.230803  4.852682            0           0           0  
      1.601066  1.995682  1.617561            0           0           0  
      4.803199  1.995682  1.617561            0           0           0  
      0.000000  3.235121  6.092122            0           0           0  
      3.202133  3.235121  6.092122            0           0           0  
      0.000000  0.000000  2.857000            0           0           0  
      3.202133  0.000000  2.857000            0           0           0  
      1.601066  1.239440  4.852682            0           0           0  
      4.803199  1.239440  4.852682            0           0           0  
      1.601066  4.474561  1.617561            0           0           0  
      4.803199  4.474561  1.617561            0           0           0  
      0.146298  3.235121 10.039561            0           0           0  
      3.204022  3.235121 10.041991            0           0           0  
     12.796593  0.000000  6.849125            0           0           0  
      3.198772  0.000000  6.842634            0           0           0  
      1.578532  5.259848 11.365603            0           0           0  
      4.829315  5.259750 11.372930            0           0           0  
      1.606691  1.994686  8.058728            0           0           0  
      4.788897  1.994280  8.037986            0           0           0  
      0.455847  3.235121 12.800446            0           0           0  
      3.200163  3.235121 12.450086            0           0           0  
     12.784575  0.000000  9.317919            0           0           0  
      3.201518  0.000000  9.303224            0           0           0  
      1.578532  1.210395 11.365603            0           0           0  
      4.829315  1.210493 11.372930            0           0           0  
      1.606691  4.475557  8.058728            0           0           0  
      4.788897  4.475963  8.037986            0           0           0  
      8.005332  3.235121  4.852682            0           0           0  
     11.207465  3.235121  4.852682            0           0           0  
      8.005332  0.000000  1.617561            0           0           0  
     11.207465  0.000000  1.617561            0           0           0  
      6.404266  3.235121  1.617561            0           0           0  
      9.606399  3.235121  1.617561            0           0           0  
      6.404266  0.000000  4.852682            0           0           0  
      9.606399  0.000000  4.852682            0           0           0  
      8.035825  0.000000  8.097275            0           0           0  
     11.173170  0.000000  8.099635            0           0           0  
      6.373413  3.235121  8.117076            0           0           0  
      9.602363  3.235121  8.196133            0           0           0  
      6.560504  0.000000 11.252650            0           0           0  
      9.607205  0.000000 11.879188            0           0           0  
      6.404266  3.235121  3.613243            0           0           0  
      9.606399  3.235121  3.613243            0           0           0  
      6.404266  0.000000  0.378121            0           0           0  
      9.606399  0.000000  0.378121            0           0           0  
      8.005332  5.230803  4.852682            0           0           0  
     11.207465  5.230803  4.852682            0           0           0  
      8.005332  1.995682  1.617561            0           0           0  
     11.207465  1.995682  1.617561            0           0           0  
      6.404266  3.235121  6.092122            0           0           0  
      9.606399  3.235121  6.092122            0           0           0  
      6.404266  0.000000  2.857000            0           0           0  
      9.606399  0.000000  2.857000            0           0           0  
      8.005332  1.239440  4.852682            0           0           0  
     11.207465  1.239440  4.852682            0           0           0  
      8.005332  4.474561  1.617561            0           0           0  
     11.207465  4.474561  1.617561            0           0           0  
      6.224149  3.235121 10.033879            0           0           0  
      9.592286  3.235121  9.983997            0           0           0  
      6.415430  0.000000  6.847369            0           0           0  
      9.606347  0.000000  6.842763            0           0           0  
      8.088123  5.281984 11.471317            0           0           0  
     11.125669  5.282487 11.473884            0           0           0  
      7.999791  2.000700  8.082135            0           0           0  
     11.206603  2.000782  8.091271            0           0           0  
      5.919787  3.235121 12.830325            0           0           0  
      6.422965  0.000000  9.314025            0           0           0  
      9.604337  0.000000  9.326209            0           0           0  
      8.088123  1.188259 11.471317            0           0           0  
     11.125669  1.187756 11.473884            0           0           0  
      7.999791  4.469543  8.082135            0           0           0  
     11.206603  4.469461  8.091271            0           0           0  
      9.605346  0.000000 13.626128     0.999982   -0.004970    0.003269  
 
   3 f  =    5.655248 THz    35.532974 2PiTHz  188.638778 cm-1    23.388236 meV
             X         Y         Z           dx          dy          dz
      1.601066  3.235121  4.852682            0           0           0  
      4.803199  3.235121  4.852682            0           0           0  
      1.601066  0.000000  1.617561            0           0           0  
      4.803199  0.000000  1.617561            0           0           0  
      0.000000  3.235121  1.617561            0           0           0  
      3.202133  3.235121  1.617561            0           0           0  
      0.000000  0.000000  4.852682            0           0           0  
      3.202133  0.000000  4.852682            0           0           0  
      1.566676  3.235121 11.381427            0           0           0  
      4.839030  3.235121 11.393758            0           0           0  
      1.588650  0.000000  8.078930            0           0           0  
      4.810456  0.000000  8.073544            0           0           0  
      0.023293  3.235121  8.125082            0           0           0  
      3.199248  3.235121  8.075009            0           0           0  
     12.655537  0.000000 11.255050            0           0           0  
      3.205015  0.000000 11.240008            0           0           0  
      0.000000  3.235121  3.613243            0           0           0  
      3.202133  3.235121  3.613243            0           0           0  
      0.000000  0.000000  0.378121            0           0           0  
      3.202133  0.000000  0.378121            0           0           0  
      1.601066  5.230803  4.852682            0           0           0  
      4.803199  5.230803  4.852682            0           0           0  
      1.601066  1.995682  1.617561            0           0           0  
      4.803199  1.995682  1.617561            0           0           0  
      0.000000  3.235121  6.092122            0           0           0  
      3.202133  3.235121  6.092122            0           0           0  
      0.000000  0.000000  2.857000            0           0           0  
      3.202133  0.000000  2.857000            0           0           0  
      1.601066  1.239440  4.852682            0           0           0  
      4.803199  1.239440  4.852682            0           0           0  
      1.601066  4.474561  1.617561            0           0           0  
      4.803199  4.474561  1.617561            0           0           0  
      0.146298  3.235121 10.039561            0           0           0  
      3.204022  3.235121 10.041991            0           0           0  
     12.796593  0.000000  6.849125            0           0           0  
      3.198772  0.000000  6.842634            0           0           0  
      1.578532  5.259848 11.365603            0           0           0  
      4.829315  5.259750 11.372930            0           0           0  
      1.606691  1.994686  8.058728            0           0           0  
      4.788897  1.994280  8.037986            0           0           0  
      0.455847  3.235121 12.800446            0           0           0  
      3.200163  3.235121 12.450086            0           0           0  
     12.784575  0.000000  9.317919            0           0           0  
      3.201518  0.000000  9.303224            0           0           0  
      1.578532  1.210395 11.365603            0           0           0  
      4.829315  1.210493 11.372930            0           0           0  
      1.606691  4.475557  8.058728            0           0           0  
      4.788897  4.475963  8.037986            0           0           0  
      8.005332  3.235121  4.852682            0           0           0  
     11.207465  3.235121  4.852682            0           0           0  
      8.005332  0.000000  1.617561            0           0           0  
     11.207465  0.000000  1.617561            0           0           0  
      6.404266  3.235121  1.617561            0           0           0  
      9.606399  3.235121  1.617561            0           0           0  
      6.404266  0.000000  4.852682            0           0           0  
      9.606399  0.000000  4.852682            0           0           0  
      8.035825  0.000000  8.097275            0           0           0  
     11.173170  0.000000  8.099635            0           0           0  
      6.373413  3.235121  8.117076            0           0           0  
      9.602363  3.235121  8.196133            0           0           0  
      6.560504  0.000000 11.252650            0           0           0  
      9.607205  0.000000 11.879188            0           0           0  
      6.404266  3.235121  3.613243            0           0           0  
      9.606399  3.235121  3.613243            0           0           0  
      6.404266  0.000000  0.378121            0           0           0  
      9.606399  0.000000  0.378121            0           0           0  
      8.005332  5.230803  4.852682            0           0           0  
     11.207465  5.230803  4.852682            0           0           0  
      8.005332  1.995682  1.617561            0           0           0  
     11.207465  1.995682  1.617561            0           0           0  
      6.404266  3.235121  6.092122            0           0           0  
      9.606399  3.235121  6.092122            0           0           0  
      6.404266  0.000000  2.857000            0           0           0  
      9.606399  0.000000  2.857000            0           0           0  
      8.005332  1.239440  4.852682            0           0           0  
     11.207465  1.239440  4.852682            0           0           0  
      8.005332  4.474561  1.617561            0           0           0  
     11.207465  4.474561  1.617561            0           0           0  
      6.224149  3.235121 10.033879            0           0           0  
      9.592286  3.235121  9.983997            0           0           0  
      6.415430  0.000000  6.847369            0           0           0  
      9.606347  0.000000  6.842763            0           0           0  
      8.088123  5.281984 11.471317            0           0           0  
     11.125669  5.282487 11.473884            0           0           0  
      7.999791  2.000700  8.082135            0           0           0  
     11.206603  2.000782  8.091271            0           0           0  
      5.919787  3.235121 12.830325            0           0           0  
      6.422965  0.000000  9.314025            0           0           0  
      9.604337  0.000000  9.326209            0           0           0  
      8.088123  1.188259 11.471317            0           0           0  
     11.125669  1.187756 11.473884            0           0           0  
      7.999791  4.469543  8.082135            0           0           0  
     11.206603  4.469461  8.091271            0           0           0  
      9.605346  0.000000 13.626128    -0.004969   -0.999988   -0.000230  
 
 Finite differences POTIM=  1.500000000000000E-002
  LATTYP: Found a simple orthorhombic cell.
 ALAT       =     6.4702430000
 B/A-ratio  =     1.9796060210
 C/A-ratio  =     4.0000000000
  
  Lattice vectors:
  
 A1 = (   0.0000000000,  -6.4702430000,   0.0000000000)
 A2 = ( -12.8085320000,   0.0000000000,   0.0000000000)
 A3 = (   0.0000000000,   0.0000000000, -25.8809720000)


Analysis of symmetry for initial positions (statically):
=====================================================================
 Subroutine PRICEL returns:
 Original cell was already a primitive cell.
 

 Routine SETGRP: Setting up the symmetry group for a 
 simple orthorhombic supercell.


 Subroutine GETGRP returns: Found  2 space group operations
 (whereof  2 operations were pure point group operations)
 out of a pool of  8 trial point group operations.


The static configuration has the point symmetry C_1h.


Analysis of symmetry for dynamics (positions and initial velocities):
=====================================================================
 Subroutine PRICEL returns:
 Original cell was already a primitive cell.
 

 Routine SETGRP: Setting up the symmetry group for a 
 simple orthorhombic supercell.


 Subroutine GETGRP returns: Found  2 space group operations
 (whereof  2 operations were pure point group operations)
 out of a pool of  8 trial point group operations.


The dynamic configuration has the point symmetry C_1h.


Analysis of constrained symmetry for selective dynamics:
=====================================================================
 Subroutine PRICEL returns:
 Original cell was already a primitive cell.
 

 Routine SETGRP: Setting up the symmetry group for a 
 simple orthorhombic supercell.


 Subroutine GETGRP returns: Found  2 space group operations
 (whereof  2 operations were pure point group operations)
 out of a pool of  8 trial point group operations.


The constrained configuration has the point symmetry C_1h.


Analysis of structural, dynamic, and magnetic symmetry:
=====================================================================
 Subroutine PRICEL returns:
 Original cell was already a primitive cell.
 

 Routine SETGRP: Setting up the symmetry group for a 
 simple orthorhombic supercell.


 Subroutine GETGRP returns: Found  2 space group operations
 (whereof  2 operations were pure point group operations)
 out of a pool of  8 trial point group operations.


The magnetic configuration has the point symmetry C_1h.


 Subroutine INISYM returns: Found  2 space group operations
 (whereof  2 operations are pure point group operations),
 and found     1 'primitive' translations

 
 KPOINTS: Automatic mesh                          

Automatic generation of k-mesh.
Space group operators:
 irot       det(A)        alpha          n_x          n_y          n_z        tau_x        tau_y        tau_z
    1     1.000000     0.000001     1.000000     0.000000     0.000000     0.000000     0.000000     0.000000
    2    -1.000000   180.000000     0.000000     1.000000     0.000000     0.000000     0.000000     0.000000
 
 Subroutine IBZKPT returns following result:
 ===========================================
 
 Found      4 irreducible k-points:
 
 Following reciprocal coordinates:
            Coordinates               Weight
  0.000000  0.000000  0.000000      1.000000
  0.333333  0.000000  0.000000      2.000000
  0.000000  0.333333  0.000000      2.000000
  0.333333  0.333333  0.000000      4.000000
 
 Following cartesian coordinates:
            Coordinates               Weight
  0.000000  0.000000  0.000000      1.000000
  0.026024  0.000000  0.000000      2.000000
  0.000000  0.051518  0.000000      2.000000
  0.026024  0.051518  0.000000      4.000000
 
     LOOP+:  cpu time  127.5032: real time  127.9742
    4ORBIT:  cpu time    0.0000: real time    0.0000

 total amount of memory used by VASP MPI-rank0   171119. kBytes
=======================================================================

   base      :      30000. kBytes
   nonlr-proj:      18653. kBytes
   fftplans  :       4196. kBytes
   grid      :      37119. kBytes
   one-center:       2923. kBytes
   wavefun   :      78228. kBytes
 
  
  
 General timing and accounting informations for this job:
 ========================================================
  
                  Total CPU time used (sec):     1500.486
                            User time (sec):     1471.724
                          System time (sec):       28.762
                         Elapsed time (sec):     1506.593
  
                   Maximum memory used (kb):      399120.
                   Average memory used (kb):           0.
  
                          Minor page faults:       866987
                          Major page faults:          192
                 Voluntary context switches:         3495
