       N       E                     dE             d eps       ncg     rms          rms(c)
DAV:   1     0.777415778851E+04    0.77742E+04   -0.30753E+05  3288   0.146E+03
DAV:   2     0.670410739656E+03   -0.71037E+04   -0.66338E+04  3416   0.435E+02
DAV:   3    -0.674354412991E+03   -0.13448E+04   -0.12927E+04  4440   0.186E+02
DAV:   4    -0.769481604301E+03   -0.95127E+02   -0.91031E+02  4336   0.478E+01
DAV:   5    -0.773118333334E+03   -0.36367E+01   -0.35867E+01  4120   0.940E+00    0.177E+02
RMM:   6    -0.676925076459E+03    0.96193E+02   -0.10632E+03  3611   0.499E+01    0.106E+02
RMM:   7    -0.936258574531E+03   -0.25933E+03   -0.68166E+02  3946   0.317E+01    0.205E+02
RMM:   8    -0.793053183340E+03    0.14321E+03   -0.64104E+01  3435   0.142E+01    0.124E+02
RMM:   9    -0.113596032043E+04   -0.34291E+03   -0.31102E+02  3619   0.219E+01    0.241E+02
RMM:  10    -0.829524974353E+03    0.30644E+03   -0.93710E+01  4024   0.107E+01    0.192E+02
RMM:  11    -0.967587588924E+03   -0.13806E+03   -0.15337E+02  3343   0.196E+01    0.202E+02
RMM:  12    -0.688730583417E+03    0.27886E+03   -0.12736E+02  3560   0.146E+01    0.784E+01
RMM:  13    -0.650871868962E+03    0.37859E+02   -0.39025E+01  3650   0.980E+00    0.609E+01
RMM:  14    -0.658276017492E+03   -0.74041E+01   -0.21465E+01  3445   0.699E+00    0.663E+01
RMM:  15    -0.631973269584E+03    0.26303E+02   -0.20950E+01  3763   0.578E+00    0.445E+01
RMM:  16    -0.626167784080E+03    0.58055E+01   -0.27059E+00  3370   0.284E+00    0.342E+01
RMM:  17    -0.625203519995E+03    0.96426E+00   -0.17725E+00  4090   0.171E+00    0.316E+01
RMM:  18    -0.625789081553E+03   -0.58556E+00   -0.30751E-01  3580   0.819E-01    0.307E+01
RMM:  19    -0.625099268886E+03    0.68981E+00   -0.34276E-01  3452   0.888E-01    0.277E+01
RMM:  20    -0.622155417492E+03    0.29439E+01   -0.88792E-01  3330   0.151E+00    0.146E+01
RMM:  21    -0.621629658007E+03    0.52576E+00   -0.73067E-01  3687   0.129E+00    0.108E+01
RMM:  22    -0.621723841887E+03   -0.94184E-01   -0.31896E-01  3557   0.840E-01    0.131E+01
RMM:  23    -0.621625126040E+03    0.98716E-01   -0.11505E-01  3458   0.567E-01    0.109E+01
RMM:  24    -0.621524270053E+03    0.10086E+00   -0.37123E-02  3878   0.288E-01    0.986E+00
RMM:  25    -0.621440328489E+03    0.83942E-01   -0.11860E-01  3330   0.510E-01    0.859E+00
RMM:  26    -0.621389772838E+03    0.50556E-01   -0.12411E-01  3421   0.548E-01    0.763E+00
RMM:  27    -0.621273693071E+03    0.11608E+00   -0.11910E-01  3434   0.516E-01    0.486E+00
RMM:  28    -0.621260020467E+03    0.13673E-01   -0.35507E-02  3396   0.312E-01    0.359E+00
RMM:  29    -0.621244763882E+03    0.15257E-01   -0.14571E-02  3470   0.198E-01    0.317E+00
RMM:  30    -0.621249824618E+03   -0.50607E-02   -0.67930E-03  3390   0.133E-01    0.312E+00
RMM:  31    -0.621247170565E+03    0.26541E-02   -0.64549E-03  3384   0.131E-01    0.294E+00
RMM:  32    -0.621220570859E+03    0.26600E-01   -0.85730E-03  3446   0.133E-01    0.215E+00
RMM:  33    -0.621220990038E+03   -0.41918E-03   -0.27118E-03  3609   0.840E-02    0.208E+00
RMM:  34    -0.621220779145E+03    0.21089E-03   -0.14436E-03  3628   0.555E-02    0.202E+00
RMM:  35    -0.621212652815E+03    0.81263E-02   -0.16345E-03  3567   0.572E-02    0.169E+00
RMM:  36    -0.621206559555E+03    0.60933E-02   -0.40175E-03  3372   0.973E-02    0.110E+00
RMM:  37    -0.621204623269E+03    0.19363E-02   -0.38556E-03  3845   0.856E-02    0.782E-01
RMM:  38    -0.621205037458E+03   -0.41419E-03   -0.11500E-03  3949   0.462E-02    0.744E-01
RMM:  39    -0.621205853419E+03   -0.81596E-03   -0.68040E-04  3490   0.375E-02    0.756E-01
RMM:  40    -0.621206325528E+03   -0.47211E-03   -0.81160E-04  3445   0.438E-02    0.638E-01
RMM:  41    -0.621206232966E+03    0.92561E-04   -0.17981E-04  3302   0.209E-02    0.593E-01
RMM:  42    -0.621205987821E+03    0.24514E-03   -0.11361E-04  3084   0.160E-02    0.572E-01
RMM:  43    -0.621205374527E+03    0.61329E-03   -0.10585E-04  3040   0.157E-02    0.454E-01
RMM:  44    -0.621204730069E+03    0.64446E-03   -0.12640E-04  3169   0.165E-02    0.308E-01
RMM:  45    -0.621204641601E+03    0.88468E-04   -0.64455E-05  2743   0.136E-02    0.298E-01
RMM:  46    -0.621204484632E+03    0.15697E-03   -0.84888E-05  2956   0.136E-02    0.251E-01
RMM:  47    -0.621204235338E+03    0.24929E-03   -0.10496E-04  3030   0.145E-02    0.139E-01
RMM:  48    -0.621204221641E+03    0.13696E-04   -0.26535E-05  2015   0.907E-03    0.123E-01
RMM:  49    -0.621204193933E+03    0.27708E-04   -0.18250E-05  1883   0.739E-03    0.948E-02
RMM:  50    -0.621204161405E+03    0.32528E-04   -0.37152E-05  2216   0.967E-03    0.375E-02
RMM:  51    -0.621204174776E+03   -0.13371E-04   -0.23676E-05  1924   0.758E-03    0.257E-02
RMM:  52    -0.621204182034E+03   -0.72580E-05   -0.75336E-06  1799   0.629E-03
   1 F= -.62120418E+03 E0= -.62115548E+03  d E =-.621204E+03
       N       E                     dE             d eps       ncg     rms          rms(c)
DAV:   1    -0.621190951467E+03    0.13223E-01   -0.27509E+01  3360   0.822E+00    0.387E+00
RMM:   2    -0.636220399908E+03   -0.15029E+02   -0.35452E+00  3470   0.277E+00    0.607E+01
RMM:   3    -0.623558466264E+03    0.12662E+02   -0.61926E-01  3288   0.142E+00    0.286E+01
RMM:   4    -0.623868417850E+03   -0.30995E+00   -0.26182E-01  3281   0.898E-01    0.307E+01
RMM:   5    -0.622216051843E+03    0.16524E+01   -0.11740E-01  3604   0.465E-01    0.208E+01
RMM:   6    -0.621701706345E+03    0.51435E+00   -0.76710E-02  3603   0.381E-01    0.156E+01
RMM:   7    -0.621589747248E+03    0.11196E+00   -0.30066E-02  3503   0.268E-01    0.140E+01
RMM:   8    -0.621570536323E+03    0.19211E-01   -0.20171E-02  3372   0.215E-01    0.133E+01
RMM:   9    -0.621597546303E+03   -0.27010E-01   -0.33227E-02  3358   0.275E-01    0.123E+01
RMM:  10    -0.621321135952E+03    0.27641E+00   -0.41199E-02  3341   0.304E-01    0.626E+00
RMM:  11    -0.621299457175E+03    0.21679E-01   -0.22623E-02  3382   0.285E-01    0.500E+00
RMM:  12    -0.621268490784E+03    0.30966E-01   -0.95218E-03  3466   0.164E-01    0.468E+00
RMM:  13    -0.621274958734E+03   -0.64679E-02   -0.71110E-03  3360   0.132E-01    0.479E+00
RMM:  14    -0.621246512162E+03    0.28447E-01   -0.65177E-03  3360   0.122E-01    0.423E+00
RMM:  15    -0.621239004577E+03    0.75076E-02   -0.46345E-03  3433   0.105E-01    0.406E+00
RMM:  16    -0.621233385199E+03    0.56194E-02   -0.30887E-03  3419   0.859E-02    0.442E+00
RMM:  17    -0.621222685226E+03    0.10700E-01   -0.14923E-03  3440   0.608E-02    0.384E+00
RMM:  18    -0.621209787636E+03    0.12898E-01   -0.20254E-03  3415   0.693E-02    0.344E+00
RMM:  19    -0.621196369910E+03    0.13418E-01   -0.39513E-03  3342   0.949E-02    0.254E+00
RMM:  20    -0.621191800163E+03    0.45697E-02   -0.15360E-03  3618   0.617E-02    0.225E+00
RMM:  21    -0.621192159334E+03   -0.35917E-03   -0.63605E-04  3489   0.396E-02    0.230E+00
RMM:  22    -0.621188474927E+03    0.36844E-02   -0.48337E-04  3408   0.338E-02    0.189E+00
RMM:  23    -0.621184106914E+03    0.43680E-02   -0.10439E-03  3460   0.470E-02    0.125E+00
RMM:  24    -0.621182544529E+03    0.15624E-02   -0.96494E-04  3597   0.480E-02    0.906E-01
RMM:  25    -0.621181613548E+03    0.93098E-03   -0.96993E-04  3548   0.453E-02    0.424E-01
RMM:  26    -0.621181765554E+03   -0.15201E-03   -0.20219E-04  3285   0.262E-02    0.501E-01
RMM:  27    -0.621181508864E+03    0.25669E-03   -0.14454E-04  3226   0.172E-02    0.268E-01
RMM:  28    -0.621181401274E+03    0.10759E-03   -0.60584E-05  2680   0.137E-02    0.157E-01
RMM:  29    -0.621181340715E+03    0.60559E-04   -0.27771E-05  2047   0.983E-03    0.106E-01
RMM:  30    -0.621181308979E+03    0.31735E-04   -0.23819E-05  1989   0.842E-03    0.893E-02
RMM:  31    -0.621181298410E+03    0.10570E-04   -0.16683E-05  1884   0.762E-03    0.646E-02
RMM:  32    -0.621181294498E+03    0.39119E-05   -0.83879E-06  1811   0.594E-03
   2 F= -.62118129E+03 E0= -.62113523E+03  d E =0.228875E-01
       N       E                     dE             d eps       ncg     rms          rms(c)
DAV:   1    -0.621234452459E+03   -0.53154E-01   -0.90985E+00  3312   0.475E+00    0.250E+00
RMM:   2    -0.627154288025E+03   -0.59198E+01   -0.11219E+00  3399   0.137E+00    0.281E+01
RMM:   3    -0.621858129726E+03    0.52962E+01   -0.35517E-01  3289   0.101E+00    0.144E+01
RMM:   4    -0.621741996259E+03    0.11613E+00   -0.13230E-01  3288   0.669E-01    0.136E+01
RMM:   5    -0.621723658551E+03    0.18338E-01   -0.13790E-02  3369   0.257E-01    0.133E+01
RMM:   6    -0.621728482954E+03   -0.48244E-02   -0.27562E-03  3992   0.665E-02    0.134E+01
RMM:   7    -0.621725563057E+03    0.29199E-02   -0.27690E-04  3327   0.227E-02    0.134E+01
RMM:   8    -0.621696704313E+03    0.28859E-01   -0.20037E-03  3454   0.609E-02    0.130E+01
RMM:   9    -0.621652872137E+03    0.43832E-01   -0.69583E-03  3341   0.119E-01    0.122E+01
RMM:  10    -0.621431511750E+03    0.22136E+00   -0.30871E-02  3395   0.252E-01    0.868E+00
RMM:  11    -0.621372144998E+03    0.59367E-01   -0.34602E-02  3521   0.275E-01    0.704E+00
RMM:  12    -0.621396913795E+03   -0.24769E-01   -0.27861E-02  3625   0.238E-01    0.835E+00
RMM:  13    -0.621364111303E+03    0.32802E-01   -0.69865E-03  3422   0.166E-01    0.762E+00
RMM:  14    -0.621317104570E+03    0.47007E-01   -0.81732E-03  3323   0.138E-01    0.615E+00
RMM:  15    -0.621265839966E+03    0.51265E-01   -0.14402E-02  3348   0.177E-01    0.480E+00
RMM:  16    -0.621243386249E+03    0.22454E-01   -0.78726E-03  3411   0.150E-01    0.262E+00
RMM:  17    -0.621246440084E+03   -0.30538E-02   -0.26946E-03  3394   0.933E-02    0.308E+00
RMM:  18    -0.621240659687E+03    0.57804E-02   -0.98474E-04  3653   0.470E-02    0.251E+00
RMM:  19    -0.621233500754E+03    0.71589E-02   -0.17919E-03  3383   0.625E-02    0.146E+00
RMM:  20    -0.621229844781E+03    0.36560E-02   -0.27420E-03  3484   0.799E-02    0.777E-01
RMM:  21    -0.621229451778E+03    0.39300E-03   -0.11630E-03  3581   0.573E-02    0.390E-01
RMM:  22    -0.621229519570E+03   -0.67793E-04   -0.35569E-04  3666   0.287E-02    0.322E-01
RMM:  23    -0.621229486740E+03    0.32830E-04   -0.10855E-04  3034   0.171E-02    0.232E-01
RMM:  24    -0.621229466525E+03    0.20215E-04   -0.68960E-05  2791   0.140E-02    0.168E-01
RMM:  25    -0.621229449381E+03    0.17144E-04   -0.48528E-05  2508   0.115E-02    0.681E-02
RMM:  26    -0.621229472774E+03   -0.23393E-04   -0.21870E-05  1946   0.926E-03    0.733E-02
RMM:  27    -0.621229482228E+03   -0.94542E-05   -0.11038E-05  1861   0.758E-03
   3 F= -.62122948E+03 E0= -.62118199E+03  d E =-.253002E-01
       N       E                     dE             d eps       ncg     rms          rms(c)
DAV:   1    -0.621222534204E+03    0.69386E-02   -0.88238E+00  3264   0.495E+00    0.878E-01
RMM:   2    -0.621595683728E+03   -0.37315E+00   -0.27136E-01  3273   0.964E-01    0.104E+01
RMM:   3    -0.621277555414E+03    0.31813E+00   -0.29824E-02  3301   0.391E-01    0.424E+00
RMM:   4    -0.621318268485E+03   -0.40713E-01   -0.97485E-03  3328   0.172E-01    0.496E+00
RMM:   5    -0.621259423621E+03    0.58845E-01   -0.48376E-03  3334   0.117E-01    0.282E+00
RMM:   6    -0.621249062466E+03    0.10361E-01   -0.32150E-03  3346   0.954E-02    0.177E+00
RMM:   7    -0.621253534707E+03   -0.44722E-02   -0.51816E-03  3338   0.114E-01    0.188E+00
RMM:   8    -0.621246477853E+03    0.70569E-02   -0.23182E-03  3364   0.708E-02    0.152E+00
RMM:   9    -0.621246976145E+03   -0.49829E-03   -0.20943E-03  3312   0.718E-02    0.136E+00
RMM:  10    -0.621245079171E+03    0.18970E-02   -0.16050E-03  3432   0.601E-02    0.928E-01
RMM:  11    -0.621242372145E+03    0.27070E-02   -0.65365E-04  3307   0.430E-02    0.626E-01
RMM:  12    -0.621242280362E+03    0.91782E-04   -0.25248E-04  3172   0.285E-02    0.487E-01
RMM:  13    -0.621241807250E+03    0.47311E-03   -0.11110E-04  3035   0.164E-02    0.339E-01
RMM:  14    -0.621241788792E+03    0.18458E-04   -0.48489E-05  2543   0.132E-02    0.305E-01
RMM:  15    -0.621241699386E+03    0.89406E-04   -0.26347E-05  2016   0.989E-03    0.234E-01
RMM:  16    -0.621241606976E+03    0.92410E-04   -0.17005E-05  1867   0.930E-03    0.162E-01
RMM:  17    -0.621241584607E+03    0.22369E-04   -0.99725E-06  1813   0.696E-03    0.127E-01
RMM:  18    -0.621241559398E+03    0.25209E-04   -0.77609E-06  1799   0.548E-03    0.852E-02
RMM:  19    -0.621241555844E+03    0.35535E-05   -0.66228E-06  1794   0.506E-03
   4 F= -.62124156E+03 E0= -.62119473E+03  d E =-.120736E-01
       N       E                     dE             d eps       ncg     rms          rms(c)
DAV:   1    -0.621241560194E+03   -0.79603E-06   -0.33559E-01  3344   0.967E-01    0.173E-01
RMM:   2    -0.621267900609E+03   -0.26340E-01   -0.11321E-02  3289   0.194E-01    0.309E+00
RMM:   3    -0.621242612515E+03    0.25288E-01   -0.19419E-03  3267   0.108E-01    0.719E-01
RMM:   4    -0.621243138102E+03   -0.52559E-03   -0.64141E-04  3174   0.525E-02    0.697E-01
RMM:   5    -0.621242217937E+03    0.92016E-03   -0.22558E-04  3260   0.227E-02    0.266E-01
RMM:   6    -0.621243359287E+03   -0.11414E-02   -0.16736E-04  3030   0.242E-02    0.559E-01
RMM:   7    -0.621242711516E+03    0.64777E-03   -0.90013E-05  2781   0.169E-02    0.403E-01
RMM:   8    -0.621242666169E+03    0.45347E-04   -0.10498E-04  2934   0.166E-02    0.372E-01
RMM:   9    -0.621242387614E+03    0.27855E-03   -0.65610E-05  2502   0.121E-02    0.268E-01
RMM:  10    -0.621242356745E+03    0.30870E-04   -0.49374E-05  2343   0.124E-02    0.156E-01
RMM:  11    -0.621242292482E+03    0.64262E-04   -0.18666E-05  1871   0.905E-03    0.784E-02
RMM:  12    -0.621242295001E+03   -0.25186E-05   -0.75210E-06  1759   0.695E-03
   5 F= -.62124230E+03 E0= -.62119536E+03  d E =-.128128E-01
       N       E                     dE             d eps       ncg     rms          rms(c)
DAV:   1    -0.621239126917E+03    0.31656E-02   -0.62480E+00  3264   0.423E+00    0.686E-01
RMM:   2    -0.621349736538E+03   -0.11061E+00   -0.17566E-01  3280   0.752E-01    0.555E+00
RMM:   3    -0.621278033598E+03    0.71703E-01   -0.17671E-02  3297   0.274E-01    0.302E+00
RMM:   4    -0.621259940005E+03    0.18094E-01   -0.77727E-03  3270   0.186E-01    0.196E+00
RMM:   5    -0.621272008051E+03   -0.12068E-01   -0.46115E-03  3322   0.124E-01    0.235E+00
RMM:   6    -0.621259889445E+03    0.12119E-01   -0.10532E-03  3354   0.610E-02    0.193E+00
RMM:   7    -0.621262763850E+03   -0.28744E-02   -0.70178E-04  3218   0.395E-02    0.197E+00
RMM:   8    -0.621256659648E+03    0.61042E-02   -0.21754E-03  3352   0.643E-02    0.134E+00
RMM:   9    -0.621252072578E+03    0.45871E-02   -0.15289E-03  3305   0.616E-02    0.649E-01
RMM:  10    -0.621251960569E+03    0.11201E-03   -0.71623E-04  3250   0.496E-02    0.420E-01
RMM:  11    -0.621251787901E+03    0.17267E-03   -0.31547E-04  3290   0.282E-02    0.373E-01
RMM:  12    -0.621251820048E+03   -0.32147E-04   -0.58622E-05  2650   0.142E-02    0.370E-01
RMM:  13    -0.621251790119E+03    0.29930E-04   -0.25538E-05  2030   0.920E-03    0.331E-01
RMM:  14    -0.621251620314E+03    0.16981E-03   -0.24419E-05  2032   0.917E-03    0.244E-01
RMM:  15    -0.621251570202E+03    0.50112E-04   -0.18607E-05  1879   0.895E-03    0.168E-01
RMM:  16    -0.621251524906E+03    0.45295E-04   -0.12199E-05  1801   0.745E-03    0.938E-02
RMM:  17    -0.621251521425E+03    0.34818E-05   -0.65571E-06  1779   0.622E-03
   6 F= -.62125152E+03 E0= -.62120527E+03  d E =-.922642E-02
       N       E                     dE             d eps       ncg     rms          rms(c)
DAV:   1    -0.621251522260E+03    0.26462E-05   -0.74413E-03  3440   0.146E-01    0.428E-02
RMM:   2    -0.621253784368E+03   -0.22621E-02   -0.38416E-04  3350   0.309E-02    0.873E-01
RMM:   3    -0.621251435700E+03    0.23487E-02   -0.19033E-04  3016   0.308E-02    0.138E-01
RMM:   4    -0.621251617025E+03   -0.18133E-03   -0.78419E-05  2646   0.235E-02    0.142E-01
RMM:   5    -0.621251562668E+03    0.54357E-04   -0.11386E-05  1803   0.879E-03    0.110E-01
RMM:   6    -0.621251557626E+03    0.50428E-05   -0.48005E-06  1712   0.521E-03
   7 F= -.62125156E+03 E0= -.62120533E+03  d E =-.926262E-02
       N       E                     dE             d eps       ncg     rms          rms(c)
DAV:   1    -0.621245694593E+03    0.58681E-02   -0.52934E+00  3264   0.393E+00    0.836E-01
RMM:   2    -0.621497199347E+03   -0.25150E+00   -0.18195E-01  3297   0.740E-01    0.108E+01
RMM:   3    -0.621304913218E+03    0.19229E+00   -0.29947E-02  3281   0.344E-01    0.393E+00
RMM:   4    -0.621268338800E+03    0.36574E-01   -0.10212E-02  3265   0.239E-01    0.276E+00
RMM:   5    -0.621265041338E+03    0.32975E-02   -0.31026E-03  3293   0.120E-01    0.230E+00
RMM:   6    -0.621259827699E+03    0.52136E-02   -0.13299E-03  3359   0.564E-02    0.188E+00
RMM:   7    -0.621261766007E+03   -0.19383E-02   -0.96432E-04  3293   0.503E-02    0.185E+00
RMM:   8    -0.621258580791E+03    0.31852E-02   -0.14997E-03  3346   0.556E-02    0.138E+00
RMM:   9    -0.621258403063E+03    0.17773E-03   -0.15825E-03  3320   0.634E-02    0.114E+00
RMM:  10    -0.621255868048E+03    0.25350E-02   -0.88623E-04  3338   0.468E-02    0.579E-01
RMM:  11    -0.621255729146E+03    0.13890E-03   -0.40305E-04  3173   0.359E-02    0.419E-01
RMM:  12    -0.621255787012E+03   -0.57866E-04   -0.11854E-04  2996   0.192E-02    0.436E-01
RMM:  13    -0.621255661123E+03    0.12589E-03   -0.78774E-05  2776   0.147E-02    0.374E-01
RMM:  14    -0.621255481378E+03    0.17974E-03   -0.65707E-05  2742   0.127E-02    0.216E-01
RMM:  15    -0.621255459887E+03    0.21491E-04   -0.26960E-05  2020   0.102E-02    0.154E-01
RMM:  16    -0.621255451620E+03    0.82671E-05   -0.11335E-05  1814   0.698E-03
   8 F= -.62125545E+03 E0= -.62120963E+03  d E =-.389399E-02
       N       E                     dE             d eps       ncg     rms          rms(c)
DAV:   1    -0.621255307719E+03    0.15217E-03   -0.30500E-01  3280   0.946E-01    0.273E-01
RMM:   2    -0.621285806530E+03   -0.30499E-01   -0.12894E-02  3337   0.187E-01    0.353E+00
RMM:   3    -0.621263450660E+03    0.22356E-01   -0.43800E-03  3281   0.125E-01    0.160E+00
RMM:   4    -0.621256228881E+03    0.72218E-02   -0.19660E-03  3261   0.107E-01    0.494E-01
RMM:   5    -0.621256315149E+03   -0.86267E-04   -0.25956E-04  3026   0.378E-02    0.501E-01
RMM:   6    -0.621256098407E+03    0.21674E-03   -0.88335E-05  2711   0.160E-02    0.481E-01
RMM:   7    -0.621256259146E+03   -0.16074E-03   -0.52444E-05  2492   0.129E-02    0.478E-01
RMM:   8    -0.621255969751E+03    0.28940E-03   -0.12114E-04  3007   0.169E-02    0.281E-01
RMM:   9    -0.621255861721E+03    0.10803E-03   -0.10462E-04  2941   0.171E-02    0.159E-01
RMM:  10    -0.621255836928E+03    0.24793E-04   -0.40621E-05  2270   0.118E-02    0.815E-02
RMM:  11    -0.621255823999E+03    0.12929E-04   -0.21514E-05  1887   0.970E-03    0.732E-02
RMM:  12    -0.621255820171E+03    0.38277E-05   -0.74689E-06  1731   0.627E-03
   9 F= -.62125582E+03 E0= -.62120992E+03  d E =-.426255E-02
       N       E                     dE             d eps       ncg     rms          rms(c)
DAV:   1    -0.621254343862E+03    0.14801E-02   -0.21783E+00  3264   0.257E+00    0.393E-01
RMM:   2    -0.621295168030E+03   -0.40824E-01   -0.64576E-02  3262   0.465E-01    0.344E+00
RMM:   3    -0.621268656925E+03    0.26511E-01   -0.59199E-03  3330   0.163E-01    0.222E+00
RMM:   4    -0.621263718815E+03    0.49381E-02   -0.20850E-03  3273   0.973E-02    0.140E+00
RMM:   5    -0.621265848991E+03   -0.21302E-02   -0.13870E-03  3280   0.712E-02    0.156E+00
RMM:   6    -0.621261806701E+03    0.40423E-02   -0.32434E-04  3152   0.334E-02    0.128E+00
RMM:   7    -0.621262726225E+03   -0.91952E-03   -0.26543E-04  2988   0.257E-02    0.129E+00
RMM:   8    -0.621262126881E+03    0.59934E-03   -0.54276E-04  3262   0.360E-02    0.108E+00
RMM:   9    -0.621259308819E+03    0.28181E-02   -0.94775E-04  3300   0.457E-02    0.584E-01
RMM:  10    -0.621258858120E+03    0.45070E-03   -0.52146E-04  3245   0.387E-02    0.286E-01
RMM:  11    -0.621258813061E+03    0.45059E-04   -0.16351E-04  3111   0.217E-02    0.228E-01
RMM:  12    -0.621258808761E+03    0.43001E-05   -0.33038E-05  2162   0.990E-03
  10 F= -.62125881E+03 E0= -.62121322E+03  d E =-.298859E-02
       N       E                     dE             d eps       ncg     rms          rms(c)
DAV:   1    -0.621258797251E+03    0.15810E-04   -0.85785E-04  3528   0.534E-02    0.158E-01
RMM:   2    -0.621271552091E+03   -0.12755E-01   -0.18390E-03  3446   0.512E-02    0.182E+00
RMM:   3    -0.621261917470E+03    0.96346E-02   -0.14912E-03  3306   0.684E-02    0.129E+00
RMM:   4    -0.621258731891E+03    0.31856E-02   -0.79463E-04  3193   0.695E-02    0.227E-01
RMM:   5    -0.621258783880E+03   -0.51989E-04   -0.17823E-04  2884   0.296E-02    0.126E-01
RMM:   6    -0.621258805865E+03   -0.21985E-04   -0.41736E-05  2257   0.122E-02    0.159E-01
RMM:   7    -0.621258765039E+03    0.40827E-04   -0.15310E-05  1810   0.819E-03    0.752E-02
RMM:   8    -0.621258753142E+03    0.11897E-04   -0.75820E-06  1695   0.576E-03    0.493E-02
RMM:   9    -0.621258752646E+03    0.49568E-06   -0.41337E-06  1676   0.464E-03
  11 F= -.62125875E+03 E0= -.62121315E+03  d E =-.293248E-02
       N       E                     dE             d eps       ncg     rms          rms(c)
DAV:   1    -0.621257730266E+03    0.10229E-02   -0.17563E+00  3264   0.224E+00    0.278E-01
RMM:   2    -0.621274265284E+03   -0.16535E-01   -0.42735E-02  3261   0.363E-01    0.210E+00
RMM:   3    -0.621263813344E+03    0.10452E-01   -0.31921E-03  3354   0.122E-01    0.113E+00
RMM:   4    -0.621263086140E+03    0.72720E-03   -0.99621E-04  3261   0.652E-02    0.919E-01
RMM:   5    -0.621263915912E+03   -0.82977E-03   -0.30889E-04  3087   0.404E-02    0.926E-01
RMM:   6    -0.621262248671E+03    0.16672E-02   -0.18615E-04  3125   0.205E-02    0.767E-01
RMM:   7    -0.621263219656E+03   -0.97099E-03   -0.33721E-04  3117   0.276E-02    0.885E-01
RMM:   8    -0.621262791395E+03    0.42826E-03   -0.45882E-04  3192   0.313E-02    0.697E-01
RMM:   9    -0.621261611919E+03    0.11795E-02   -0.56018E-04  3230   0.374E-02    0.366E-01
RMM:  10    -0.621261427792E+03    0.18413E-03   -0.22855E-04  3172   0.248E-02    0.285E-01
RMM:  11    -0.621261515637E+03   -0.87844E-04   -0.68947E-05  2646   0.131E-02    0.313E-01
RMM:  12    -0.621261385301E+03    0.13034E-03   -0.14281E-05  1848   0.778E-03    0.220E-01
RMM:  13    -0.621261370399E+03    0.14902E-04   -0.78691E-06  1797   0.650E-03    0.185E-01
RMM:  14    -0.621261371906E+03   -0.15067E-05   -0.73652E-06  1772   0.535E-03
  12 F= -.62126137E+03 E0= -.62121576E+03  d E =-.261926E-02
       N       E                     dE             d eps       ncg     rms          rms(c)
DAV:   1    -0.621261316201E+03    0.54198E-04   -0.53127E-02  3296   0.390E-01    0.119E-01
RMM:   2    -0.621278219020E+03   -0.16903E-01   -0.27436E-03  3363   0.789E-02    0.244E+00
RMM:   3    -0.621261116273E+03    0.17103E-01   -0.15291E-03  3268   0.820E-02    0.411E-01
RMM:   4    -0.621261536571E+03   -0.42030E-03   -0.50773E-04  3060   0.622E-02    0.197E-01
RMM:   5    -0.621261536007E+03    0.56363E-06   -0.53645E-05  2416   0.149E-02
  13 F= -.62126154E+03 E0= -.62121599E+03  d E =-.278336E-02
       N       E                     dE             d eps       ncg     rms          rms(c)
DAV:   1    -0.621261983168E+03   -0.44660E-03   -0.71283E-01  3264   0.140E+00    0.355E-01
RMM:   2    -0.621400385406E+03   -0.13840E+00   -0.31428E-02  3351   0.268E-01    0.723E+00
RMM:   3    -0.621263418552E+03    0.13697E+00   -0.10847E-02  3269   0.213E-01    0.863E-01
RMM:   4    -0.621265283756E+03   -0.18652E-02   -0.31117E-03  3264   0.144E-01    0.102E+00
RMM:   5    -0.621263823822E+03    0.14599E-02   -0.61067E-04  3378   0.371E-02    0.709E-01
RMM:   6    -0.621263997758E+03   -0.17394E-03   -0.38255E-04  3132   0.286E-02    0.695E-01
RMM:   7    -0.621264121483E+03   -0.12373E-03   -0.13756E-04  2943   0.212E-02    0.609E-01
RMM:   8    -0.621263327726E+03    0.79376E-03   -0.10652E-04  2925   0.159E-02    0.426E-01
RMM:   9    -0.621263293098E+03    0.34628E-04   -0.12374E-04  3002   0.177E-02    0.343E-01
RMM:  10    -0.621263339436E+03   -0.46337E-04   -0.59430E-05  2522   0.131E-02    0.317E-01
RMM:  11    -0.621263092176E+03    0.24726E-03   -0.53112E-05  2479   0.115E-02    0.132E-01
RMM:  12    -0.621263098771E+03   -0.65946E-05   -0.17846E-05  1853   0.964E-03
  14 F= -.62126310E+03 E0= -.62121761E+03  d E =-.156276E-02
       N       E                     dE             d eps       ncg     rms          rms(c)
DAV:   1    -0.621262869150E+03    0.22303E-03   -0.47260E-01  3264   0.114E+00    0.199E-01
RMM:   2    -0.621278656157E+03   -0.15787E-01   -0.13410E-02  3284   0.190E-01    0.271E+00
RMM:   3    -0.621264732955E+03    0.13923E-01   -0.18476E-03  3276   0.933E-02    0.674E-01
RMM:   4    -0.621266252890E+03   -0.15199E-02   -0.74505E-04  3205   0.598E-02    0.104E+00
RMM:   5    -0.621264549382E+03    0.17035E-02   -0.22179E-04  3044   0.310E-02    0.720E-01
RMM:   6    -0.621264493851E+03    0.55532E-04   -0.21506E-04  3038   0.205E-02    0.616E-01
RMM:   7    -0.621264502191E+03   -0.83406E-05   -0.67810E-05  2653   0.166E-02
  15 F= -.62126450E+03 E0= -.62121916E+03  d E =-.296618E-02
       N       E                     dE             d eps       ncg     rms          rms(c)
DAV:   1    -0.621264049822E+03    0.44403E-03   -0.42752E-01  3264   0.109E+00    0.424E-01
RMM:   2    -0.621350842574E+03   -0.86793E-01   -0.21364E-02  3366   0.216E-01    0.557E+00
RMM:   3    -0.621285593307E+03    0.65249E-01   -0.11460E-02  3290   0.186E-01    0.229E+00
RMM:   4    -0.621265208646E+03    0.20385E-01   -0.44429E-03  3264   0.165E-01    0.398E-01
RMM:   5    -0.621265623405E+03   -0.41476E-03   -0.71285E-04  3246   0.531E-02    0.458E-01
RMM:   6    -0.621265021882E+03    0.60152E-03   -0.24747E-04  3148   0.268E-02    0.364E-01
RMM:   7    -0.621264817973E+03    0.20391E-03   -0.74376E-05  2680   0.167E-02    0.222E-01
RMM:   8    -0.621264846906E+03   -0.28933E-04   -0.76874E-05  2770   0.138E-02    0.233E-01
RMM:   9    -0.621264744198E+03    0.10271E-03   -0.47122E-05  2438   0.121E-02    0.857E-02
RMM:  10    -0.621264739935E+03    0.42626E-05   -0.23847E-05  1979   0.107E-02
  16 F= -.62126474E+03 E0= -.62121931E+03  d E =-.237744E-03
       N       E                     dE             d eps       ncg     rms          rms(c)
DAV:   1    -0.621264425389E+03    0.31881E-03   -0.41011E-01  3264   0.107E+00    0.125E-01
RMM:   2    -0.621267870991E+03   -0.34456E-02   -0.91834E-03  3235   0.163E-01    0.895E-01
RMM:   3    -0.621265377100E+03    0.24939E-02   -0.56438E-04  3297   0.527E-02    0.256E-01
RMM:   4    -0.621265820620E+03   -0.44352E-03   -0.26218E-04  3046   0.258E-02    0.548E-01
RMM:   5    -0.621265748370E+03    0.72250E-04   -0.64610E-05  2563   0.172E-02    0.433E-01
RMM:   6    -0.621265412366E+03    0.33600E-03   -0.61804E-05  2631   0.125E-02    0.372E-01
RMM:   7    -0.621265695480E+03   -0.28311E-03   -0.67300E-05  2592   0.140E-02    0.433E-01
RMM:   8    -0.621265466987E+03    0.22849E-03   -0.45924E-05  2293   0.110E-02    0.318E-01
RMM:   9    -0.621265285106E+03    0.18188E-03   -0.62281E-05  2623   0.135E-02    0.172E-01
RMM:  10    -0.621265275438E+03    0.96677E-05   -0.19148E-05  1895   0.917E-03
  17 F= -.62126528E+03 E0= -.62121981E+03  d E =-.773247E-03
       N       E                     dE             d eps       ncg     rms          rms(c)
DAV:   1    -0.621261637829E+03    0.36473E-02   -0.16411E+00  3264   0.213E+00    0.235E-01
RMM:   2    -0.621265897957E+03   -0.42601E-02   -0.36151E-02  3265   0.324E-01    0.495E-01
RMM:   3    -0.621265718233E+03    0.17972E-03   -0.19213E-03  3397   0.905E-02    0.498E-01
RMM:   4    -0.621265584393E+03    0.13384E-03   -0.44071E-04  3566   0.292E-02    0.419E-01
RMM:   5    -0.621266717587E+03   -0.11332E-02   -0.61770E-04  3236   0.361E-02    0.921E-01
RMM:   6    -0.621266507171E+03    0.21042E-03   -0.16017E-04  2890   0.330E-02    0.803E-01
RMM:   7    -0.621265326450E+03    0.11807E-02   -0.20132E-04  3060   0.210E-02    0.572E-01
RMM:   8    -0.621265364436E+03   -0.37986E-04   -0.22393E-04  2933   0.233E-02    0.477E-01
RMM:   9    -0.621265076210E+03    0.28823E-03   -0.17112E-04  2987   0.212E-02    0.193E-01
RMM:  10    -0.621265067913E+03    0.82967E-05   -0.10058E-04  2851   0.180E-02    0.235E-01
RMM:  11    -0.621265057708E+03    0.10205E-04   -0.32547E-05  2126   0.104E-02    0.222E-01
RMM:  12    -0.621265056258E+03    0.14501E-05   -0.12055E-05  1793   0.775E-03
  18 F= -.62126506E+03 E0= -.62121957E+03  d E =-.554066E-03
       N       E                     dE             d eps       ncg     rms          rms(c)
DAV:   1    -0.621263755358E+03    0.13024E-02   -0.86041E-01  3264   0.154E+00    0.268E-01
RMM:   2    -0.621352318833E+03   -0.88563E-01   -0.26591E-02  3314   0.260E-01    0.557E+00
RMM:   3    -0.621263656979E+03    0.88662E-01   -0.69144E-03  3268   0.179E-01    0.430E-01
RMM:   4    -0.621265898658E+03   -0.22417E-02   -0.19396E-03  3260   0.115E-01    0.511E-01
RMM:   5    -0.621265581792E+03    0.31687E-03   -0.34956E-04  3311   0.298E-02    0.427E-01
RMM:   6    -0.621265761011E+03   -0.17922E-03   -0.10410E-04  2804   0.198E-02    0.443E-01
RMM:   7    -0.621265735012E+03    0.25999E-04   -0.98250E-05  2888   0.166E-02    0.469E-01
RMM:   8    -0.621265797516E+03   -0.62504E-04   -0.70469E-05  2568   0.126E-02    0.473E-01
RMM:   9    -0.621265655651E+03    0.14187E-03   -0.96495E-05  2768   0.150E-02    0.359E-01
RMM:  10    -0.621265335571E+03    0.32008E-03   -0.55861E-05  2508   0.126E-02    0.121E-01
RMM:  11    -0.621265339134E+03   -0.35631E-05   -0.22110E-05  1925   0.106E-02
  19 F= -.62126534E+03 E0= -.62121981E+03  d E =-.836943E-03
       N       E                     dE             d eps       ncg     rms          rms(c)
DAV:   1    -0.621266003583E+03   -0.66801E-03   -0.93636E-02  3264   0.533E-01    0.103E-01
RMM:   2    -0.621267598754E+03   -0.15952E-02   -0.28683E-03  3243   0.963E-02    0.759E-01
RMM:   3    -0.621266906697E+03    0.69206E-03   -0.36877E-04  3164   0.365E-02    0.533E-01
RMM:   4    -0.621266206242E+03    0.70046E-03   -0.98288E-05  2770   0.243E-02    0.143E-01
RMM:   5    -0.621266262131E+03   -0.55889E-04   -0.16696E-05  1898   0.101E-02    0.213E-01
RMM:   6    -0.621266540954E+03   -0.27882E-03   -0.17495E-05  1867   0.769E-03    0.327E-01
RMM:   7    -0.621266293451E+03    0.24750E-03   -0.20559E-05  1917   0.965E-03    0.264E-01
RMM:   8    -0.621266240550E+03    0.52900E-04   -0.12797E-05  1807   0.724E-03    0.193E-01
RMM:   9    -0.621266203640E+03    0.36910E-04   -0.43529E-05  2308   0.107E-02    0.104E-01
RMM:  10    -0.621266195354E+03    0.82861E-05   -0.17624E-05  1850   0.844E-03
  20 F= -.62126620E+03 E0= -.62122075E+03  d E =-.856220E-03
       N       E                     dE             d eps       ncg     rms          rms(c)
DAV:   1    -0.621265931781E+03    0.27186E-03   -0.53751E-01  3264   0.128E+00    0.194E-01
RMM:   2    -0.621270733728E+03   -0.48019E-02   -0.15061E-02  3244   0.225E-01    0.141E+00
RMM:   3    -0.621267953252E+03    0.27805E-02   -0.12162E-03  3341   0.722E-02    0.575E-01
RMM:   4    -0.621267769165E+03    0.18409E-03   -0.32499E-04  3168   0.343E-02    0.624E-01
RMM:   5    -0.621267310581E+03    0.45858E-03   -0.85770E-05  2708   0.231E-02    0.444E-01
RMM:   6    -0.621268212274E+03   -0.90169E-03   -0.12749E-04  2999   0.155E-02    0.720E-01
RMM:   7    -0.621267765796E+03    0.44648E-03   -0.44001E-05  2354   0.153E-02    0.598E-01
RMM:   8    -0.621267295339E+03    0.47046E-03   -0.21947E-04  3108   0.204E-02    0.397E-01
RMM:   9    -0.621267304956E+03   -0.96174E-05   -0.17711E-04  3010   0.242E-02    0.296E-01
RMM:  10    -0.621267093782E+03    0.21117E-03   -0.12419E-04  2966   0.176E-02    0.189E-01
RMM:  11    -0.621267118553E+03   -0.24771E-04   -0.24536E-05  1998   0.103E-02    0.202E-01
RMM:  12    -0.621267101933E+03    0.16621E-04   -0.86210E-06  1780   0.705E-03    0.186E-01
RMM:  13    -0.621267091799E+03    0.10134E-04   -0.35872E-06  1697   0.402E-03    0.166E-01
RMM:  14    -0.621267069592E+03    0.22207E-04   -0.30144E-06  1663   0.337E-03    0.126E-01
RMM:  15    -0.621267059321E+03    0.10270E-04   -0.35550E-06  1740   0.381E-03    0.917E-02
RMM:  16    -0.621267051737E+03    0.75840E-05   -0.26625E-06  1715   0.338E-03
  21 F= -.62126705E+03 E0= -.62122170E+03  d E =-.171260E-02
       N       E                     dE             d eps       ncg     rms          rms(c)
DAV:   1    -0.621267440355E+03   -0.38103E-03   -0.13764E-01  3264   0.646E-01    0.125E-01
RMM:   2    -0.621269710758E+03   -0.22704E-02   -0.41258E-03  3230   0.115E-01    0.106E+00
RMM:   3    -0.621268457066E+03    0.12537E-02   -0.51067E-04  3203   0.452E-02    0.597E-01
RMM:   4    -0.621267763570E+03    0.69350E-03   -0.13116E-04  2780   0.285E-02    0.221E-01
RMM:   5    -0.621268062039E+03   -0.29847E-03   -0.33452E-05  2165   0.108E-02    0.392E-01
RMM:   6    -0.621267990966E+03    0.71073E-04   -0.15458E-05  1841   0.957E-03    0.366E-01
RMM:   7    -0.621267915784E+03    0.75182E-04   -0.19042E-05  1923   0.834E-03    0.307E-01
RMM:   8    -0.621267756967E+03    0.15882E-03   -0.42651E-05  2299   0.108E-02    0.174E-01
RMM:   9    -0.621267759195E+03   -0.22280E-05   -0.53775E-05  2479   0.127E-02
  22 F= -.62126776E+03 E0= -.62122249E+03  d E =-.707458E-03
       N       E                     dE             d eps       ncg     rms          rms(c)
DAV:   1    -0.621267894616E+03   -0.13765E-03   -0.52567E-02  3296   0.400E-01    0.210E-01
RMM:   2    -0.621318729832E+03   -0.50835E-01   -0.59087E-03  3424   0.105E-01    0.407E+00
RMM:   3    -0.621269056002E+03    0.49674E-01   -0.45823E-03  3280   0.132E-01    0.886E-01
RMM:   4    -0.621268195036E+03    0.86097E-03   -0.14239E-03  3256   0.105E-01    0.268E-01
RMM:   5    -0.621268203689E+03   -0.86526E-05   -0.20785E-04  3100   0.233E-02    0.389E-01
RMM:   6    -0.621268244794E+03   -0.41105E-04   -0.58261E-05  2541   0.138E-02    0.325E-01
RMM:   7    -0.621268013084E+03    0.23171E-03   -0.26014E-05  2044   0.102E-02    0.233E-01
RMM:   8    -0.621268031560E+03   -0.18476E-04   -0.11336E-05  1790   0.773E-03    0.207E-01
RMM:   9    -0.621267936552E+03    0.95008E-04   -0.11669E-05  1766   0.681E-03    0.916E-02
RMM:  10    -0.621267943928E+03   -0.73753E-05   -0.65788E-06  1752   0.638E-03
  23 F= -.62126794E+03 E0= -.62122269E+03  d E =-.892190E-03
       N       E                     dE             d eps       ncg     rms          rms(c)
DAV:   1    -0.621267573778E+03    0.36277E-03   -0.21042E-01  3264   0.799E-01    0.148E-01
RMM:   2    -0.621276118436E+03   -0.85447E-02   -0.63207E-03  3276   0.142E-01    0.181E+00
RMM:   3    -0.621269843714E+03    0.62747E-02   -0.12579E-03  3272   0.717E-02    0.931E-01
RMM:   4    -0.621268300144E+03    0.15436E-02   -0.42739E-04  3074   0.568E-02    0.366E-01
RMM:   5    -0.621268499536E+03   -0.19939E-03   -0.89814E-05  2744   0.146E-02    0.523E-01
RMM:   6    -0.621268504774E+03   -0.52380E-05   -0.23894E-05  2004   0.104E-02
  24 F= -.62126850E+03 E0= -.62122331E+03  d E =-.145304E-02
       N       E                     dE             d eps       ncg     rms          rms(c)
DAV:   1    -0.621268216942E+03    0.28259E-03   -0.53425E-02  3264   0.405E-01    0.425E-01
RMM:   2    -0.621369733125E+03   -0.10152E+00   -0.14893E-02  3419   0.158E-01    0.571E+00
RMM:   3    -0.621290591295E+03    0.79142E-01   -0.13238E-02  3301   0.195E-01    0.264E+00
RMM:   4    -0.621268951784E+03    0.21640E-01   -0.52654E-03  3264   0.182E-01    0.503E-01
RMM:   5    -0.621268187087E+03    0.76470E-03   -0.62136E-04  3181   0.484E-02    0.358E-01
RMM:   6    -0.621268241001E+03   -0.53914E-04   -0.29956E-04  3211   0.296E-02    0.231E-01
RMM:   7    -0.621268091657E+03    0.14934E-03   -0.80695E-05  2747   0.166E-02    0.123E-01
RMM:   8    -0.621268048020E+03    0.43636E-04   -0.28981E-05  2074   0.119E-02    0.702E-02
RMM:   9    -0.621268037301E+03    0.10719E-04   -0.77468E-06  1752   0.645E-03    0.498E-02
RMM:  10    -0.621268036883E+03    0.41879E-06   -0.34127E-06  1614   0.384E-03
  25 F= -.62126804E+03 E0= -.62122286E+03  d E =-.985145E-03
       N       E                     dE             d eps       ncg     rms          rms(c)
DAV:   1    -0.621268322581E+03   -0.28528E-03   -0.17600E-01  3264   0.699E-01    0.162E-01
RMM:   2    -0.621290384696E+03   -0.22062E-01   -0.68604E-03  3358   0.133E-01    0.279E+00
RMM:   3    -0.621268672684E+03    0.21712E-01   -0.18553E-03  3267   0.918E-02    0.517E-01
RMM:   4    -0.621269080234E+03   -0.40755E-03   -0.65408E-04  3139   0.636E-02    0.407E-01
RMM:   5    -0.621268675515E+03    0.40472E-03   -0.13879E-04  2976   0.195E-02    0.246E-01
RMM:   6    -0.621268669676E+03    0.58393E-05   -0.65284E-05  2613   0.146E-02
  26 F= -.62126867E+03 E0= -.62122341E+03  d E =-.632793E-03
