 vasp.5.4.4.18Apr17-6-g9f103f2a35 (build Feb 25 2019 10:51:38) complex          
  
 executed on             LinuxIFC date 2023.03.14  11:32:46
 running on   40 total cores
 distrk:  each k-point on   40 cores,    1 groups
 distr:  one band on NCORES_PER_BAND=  10 cores,    4 groups


--------------------------------------------------------------------------------------------------------


 INCAR:
 POTCAR:    PAW_PBE Ir 06Sep2000                  
 POTCAR:    PAW_PBE O 08Apr2002                   
 POTCAR:    PAW_PBE Ir 06Sep2000                  
 POTCAR:    PAW_PBE O 08Apr2002                   
 POTCAR:    PAW_PBE Ir 06Sep2000                  
   VRHFIN =Ir: s1d8                                                             
   LEXCH  = PE                                                                  
   EATOM  =   560.1833 eV,   41.1723 Ry                                         
                                                                                
   TITEL  = PAW_PBE Ir 06Sep2000                                                
   LULTRA =        F    use ultrasoft PP ?                                      
   IUNSCR =        1    unscreen: 0-lin 1-nonlin 2-no                           
   RPACOR =    2.250    partial core radius                                     
   POMASS =  192.220; ZVAL   =    9.000    mass and valenz                      
   RCORE  =    2.600    outmost cutoff radius                                   
   RWIGS  =    2.690; RWIGS  =    1.423    wigner-seitz radius (au A)           
   ENMAX  =  210.864; ENMIN  =  158.148 eV                                      
   RCLOC  =    1.857    cutoff for local pot                                    
   LCOR   =        T    correct aug charges                                     
   LPAW   =        T    paw PP                                                  
   EAUG   =  318.962                                                            
   DEXC   =    0.000                                                            
   RMAX   =    2.667    core radius for proj-oper                               
   RAUG   =    1.300    factor for augmentation sphere                          
   RDEP   =    2.748    radius for radial grids                                 
   RDEPT  =    2.300    core radius for aug-charge                              
                                                                                
   Atomic configuration                                                         
   16 entries                                                                   
     n  l   j            E        occ.                                          
     1  0  0.50    -76100.0449   2.0000                                         
     2  0  0.50    -13308.1683   2.0000                                         
     2  1  1.50    -11558.0021   6.0000                                         
     3  0  0.50     -3110.7274   2.0000                                         
     3  1  1.50     -2599.2109   6.0000                                         
     3  2  2.50     -2037.1515  10.0000                                         
     4  0  0.50      -661.6001   2.0000                                         
     4  1  1.50      -493.8981   6.0000                                         
     4  2  2.50      -288.1909  10.0000                                         
     4  3  3.50       -59.5718  14.0000                                         
     5  0  0.50       -95.3879   2.0000                                         
     5  1  1.50       -52.2747   6.0000                                         
     5  2  2.50        -5.4180   8.0000                                         
     6  0  0.50        -5.5479   1.0000                                         
     6  1  1.50        -6.8029   0.0000                                         
     5  3  2.50        -1.3606   0.0000                                         
   Description                                                                  
     l       E           TYP  RCUT    TYP  RCUT                                 
     2     -5.4179967     23  2.600                                             
     2     -6.7785793     23  2.600                                             
     0     -5.5478636     23  2.600                                             
     0      2.2542272     23  2.600                                             
     1     -2.7211652     23  2.600                                             
     1     20.4087390     23  2.600                                             
  local pseudopotential read in
  partial core-charges read in
  partial kinetic energy density read in
  atomic valenz-charges read in
  non local Contribution for L=           2  read in
    real space projection operators read in
  non local Contribution for L=           2  read in
    real space projection operators read in
  non local Contribution for L=           0  read in
    real space projection operators read in
  non local Contribution for L=           0  read in
    real space projection operators read in
  non local Contribution for L=           1  read in
    real space projection operators read in
  non local Contribution for L=           1  read in
    real space projection operators read in
    PAW grid and wavefunctions read in
 
   number of l-projection  operators is LMAX  =           6
   number of lm-projection operators is LMMAX =          18
 
 POTCAR:    PAW_PBE O 08Apr2002                   
   VRHFIN =O: s2p4                                                              
   LEXCH  = PE                                                                  
   EATOM  =   432.3788 eV,   31.7789 Ry                                         
                                                                                
   TITEL  = PAW_PBE O 08Apr2002                                                 
   LULTRA =        F    use ultrasoft PP ?                                      
   IUNSCR =        1    unscreen: 0-lin 1-nonlin 2-no                           
   RPACOR =    1.200    partial core radius                                     
   POMASS =   16.000; ZVAL   =    6.000    mass and valenz                      
   RCORE  =    1.520    outmost cutoff radius                                   
   RWIGS  =    1.550; RWIGS  =    0.820    wigner-seitz radius (au A)           
   ENMAX  =  400.000; ENMIN  =  300.000 eV                                      
   ICORE  =        2    local potential                                         
   LCOR   =        T    correct aug charges                                     
   LPAW   =        T    paw PP                                                  
   EAUG   =  605.392                                                            
   DEXC   =    0.000                                                            
   RMAX   =    1.553    core radius for proj-oper                               
   RAUG   =    1.300    factor for augmentation sphere                          
   RDEP   =    1.550    radius for radial grids                                 
   RDEPT  =    1.329    core radius for aug-charge                              
                                                                                
   Atomic configuration                                                         
    4 entries                                                                   
     n  l   j            E        occ.                                          
     1  0  0.50      -514.6923   2.0000                                         
     2  0  0.50       -23.9615   2.0000                                         
     2  1  0.50        -9.0305   4.0000                                         
     3  2  1.50        -9.5241   0.0000                                         
   Description                                                                  
     l       E           TYP  RCUT    TYP  RCUT                                 
     0    -23.9615318     23  1.200                                             
     0     -9.5240782     23  1.200                                             
     1     -9.0304911     23  1.520                                             
     1      8.1634956     23  1.520                                             
     2     -9.5240782      7  1.500                                             
  local pseudopotential read in
  partial core-charges read in
  partial kinetic energy density read in
  kinetic energy density of atom read in
  atomic valenz-charges read in
  non local Contribution for L=           0  read in
    real space projection operators read in
  non local Contribution for L=           0  read in
    real space projection operators read in
  non local Contribution for L=           1  read in
    real space projection operators read in
  non local Contribution for L=           1  read in
    real space projection operators read in
    PAW grid and wavefunctions read in
 
   number of l-projection  operators is LMAX  =           4
   number of lm-projection operators is LMMAX =           8
 
 POTCAR:    PAW_PBE Ir 06Sep2000                  
   VRHFIN =Ir: s1d8                                                             
   LEXCH  = PE                                                                  
   EATOM  =   560.1833 eV,   41.1723 Ry                                         
                                                                                
   TITEL  = PAW_PBE Ir 06Sep2000                                                
   LULTRA =        F    use ultrasoft PP ?                                      
   IUNSCR =        1    unscreen: 0-lin 1-nonlin 2-no                           
   RPACOR =    2.250    partial core radius                                     
   POMASS =  192.220; ZVAL   =    9.000    mass and valenz                      
   RCORE  =    2.600    outmost cutoff radius                                   
   RWIGS  =    2.690; RWIGS  =    1.423    wigner-seitz radius (au A)           
   ENMAX  =  210.864; ENMIN  =  158.148 eV                                      
   RCLOC  =    1.857    cutoff for local pot                                    
   LCOR   =        T    correct aug charges                                     
   LPAW   =        T    paw PP                                                  
   EAUG   =  318.962                                                            
   DEXC   =    0.000                                                            
   RMAX   =    2.667    core radius for proj-oper                               
   RAUG   =    1.300    factor for augmentation sphere                          
   RDEP   =    2.748    radius for radial grids                                 
   RDEPT  =    2.300    core radius for aug-charge                              
                                                                                
   Atomic configuration                                                         
   16 entries                                                                   
     n  l   j            E        occ.                                          
     1  0  0.50    -76100.0449   2.0000                                         
     2  0  0.50    -13308.1683   2.0000                                         
     2  1  1.50    -11558.0021   6.0000                                         
     3  0  0.50     -3110.7274   2.0000                                         
     3  1  1.50     -2599.2109   6.0000                                         
     3  2  2.50     -2037.1515  10.0000                                         
     4  0  0.50      -661.6001   2.0000                                         
     4  1  1.50      -493.8981   6.0000                                         
     4  2  2.50      -288.1909  10.0000                                         
     4  3  3.50       -59.5718  14.0000                                         
     5  0  0.50       -95.3879   2.0000                                         
     5  1  1.50       -52.2747   6.0000                                         
     5  2  2.50        -5.4180   8.0000                                         
     6  0  0.50        -5.5479   1.0000                                         
     6  1  1.50        -6.8029   0.0000                                         
     5  3  2.50        -1.3606   0.0000                                         
   Description                                                                  
     l       E           TYP  RCUT    TYP  RCUT                                 
     2     -5.4179967     23  2.600                                             
     2     -6.7785793     23  2.600                                             
     0     -5.5478636     23  2.600                                             
     0      2.2542272     23  2.600                                             
     1     -2.7211652     23  2.600                                             
     1     20.4087390     23  2.600                                             
  local pseudopotential read in
  partial core-charges read in
  partial kinetic energy density read in
  atomic valenz-charges read in
  non local Contribution for L=           2  read in
    real space projection operators read in
  non local Contribution for L=           2  read in
    real space projection operators read in
  non local Contribution for L=           0  read in
    real space projection operators read in
  non local Contribution for L=           0  read in
    real space projection operators read in
  non local Contribution for L=           1  read in
    real space projection operators read in
  non local Contribution for L=           1  read in
    real space projection operators read in
    PAW grid and wavefunctions read in
 
   number of l-projection  operators is LMAX  =           6
   number of lm-projection operators is LMMAX =          18
 
 POTCAR:    PAW_PBE O 08Apr2002                   
   VRHFIN =O: s2p4                                                              
   LEXCH  = PE                                                                  
   EATOM  =   432.3788 eV,   31.7789 Ry                                         
                                                                                
   TITEL  = PAW_PBE O 08Apr2002                                                 
   LULTRA =        F    use ultrasoft PP ?                                      
   IUNSCR =        1    unscreen: 0-lin 1-nonlin 2-no                           
   RPACOR =    1.200    partial core radius                                     
   POMASS =   16.000; ZVAL   =    6.000    mass and valenz                      
   RCORE  =    1.520    outmost cutoff radius                                   
   RWIGS  =    1.550; RWIGS  =    0.820    wigner-seitz radius (au A)           
   ENMAX  =  400.000; ENMIN  =  300.000 eV                                      
   ICORE  =        2    local potential                                         
   LCOR   =        T    correct aug charges                                     
   LPAW   =        T    paw PP                                                  
   EAUG   =  605.392                                                            
   DEXC   =    0.000                                                            
   RMAX   =    1.553    core radius for proj-oper                               
   RAUG   =    1.300    factor for augmentation sphere                          
   RDEP   =    1.550    radius for radial grids                                 
   RDEPT  =    1.329    core radius for aug-charge                              
                                                                                
   Atomic configuration                                                         
    4 entries                                                                   
     n  l   j            E        occ.                                          
     1  0  0.50      -514.6923   2.0000                                         
     2  0  0.50       -23.9615   2.0000                                         
     2  1  0.50        -9.0305   4.0000                                         
     3  2  1.50        -9.5241   0.0000                                         
   Description                                                                  
     l       E           TYP  RCUT    TYP  RCUT                                 
     0    -23.9615318     23  1.200                                             
     0     -9.5240782     23  1.200                                             
     1     -9.0304911     23  1.520                                             
     1      8.1634956     23  1.520                                             
     2     -9.5240782      7  1.500                                             
  local pseudopotential read in
  partial core-charges read in
  partial kinetic energy density read in
  kinetic energy density of atom read in
  atomic valenz-charges read in
  non local Contribution for L=           0  read in
    real space projection operators read in
  non local Contribution for L=           0  read in
    real space projection operators read in
  non local Contribution for L=           1  read in
    real space projection operators read in
  non local Contribution for L=           1  read in
    real space projection operators read in
    PAW grid and wavefunctions read in
 
   number of l-projection  operators is LMAX  =           4
   number of lm-projection operators is LMMAX =           8
 
 Optimization of the real space projectors (new method)

 maximal supplied QI-value         = 14.36
 optimisation between [QCUT,QGAM] = [ 11.35, 22.84] = [ 36.05,146.02] Ry 
 Optimized for a Real-space Cutoff    1.52 Angstroem

   l    n(q)    QCUT    max X(q) W(low)/X(q) W(high)/X(q)  e(spline) 
   2      9    11.346   134.116    0.47E-03    0.13E-03    0.92E-06
   2      9    11.346   130.192    0.47E-03    0.13E-03    0.92E-06
   0     10    11.346    60.310    0.74E-04    0.13E-03    0.69E-06
   0     10    11.346    39.218    0.68E-04    0.12E-03    0.65E-06
   1     10    11.346    18.439    0.15E-03    0.34E-04    0.20E-06
   1     10    11.346    12.760    0.12E-03    0.31E-04    0.16E-06
 Optimization of the real space projectors (new method)

 maximal supplied QI-value         = 24.76
 optimisation between [QCUT,QGAM] = [ 11.39, 22.77] = [ 36.31,145.25] Ry 
 Optimized for a Real-space Cutoff    1.00 Angstroem

   l    n(q)    QCUT    max X(q) W(low)/X(q) W(high)/X(q)  e(spline) 
   0      7    11.387    20.381    0.39E-03    0.13E-02    0.15E-06
   0      7    11.387    15.268    0.42E-03    0.14E-02    0.17E-06
   1      6    11.387     5.964    0.41E-03    0.11E-02    0.17E-06
   1      6    11.387     5.382    0.39E-03    0.87E-03    0.15E-06
 Optimization of the real space projectors (new method)

 maximal supplied QI-value         = 14.36
 optimisation between [QCUT,QGAM] = [ 11.35, 22.84] = [ 36.05,146.02] Ry 
 Optimized for a Real-space Cutoff    1.52 Angstroem

   l    n(q)    QCUT    max X(q) W(low)/X(q) W(high)/X(q)  e(spline) 
   2      9    11.346   134.116    0.47E-03    0.13E-03    0.92E-06
   2      9    11.346   130.192    0.47E-03    0.13E-03    0.92E-06
   0     10    11.346    60.310    0.74E-04    0.13E-03    0.69E-06
   0     10    11.346    39.218    0.68E-04    0.12E-03    0.65E-06
   1     10    11.346    18.439    0.15E-03    0.34E-04    0.20E-06
   1     10    11.346    12.760    0.12E-03    0.31E-04    0.16E-06
 Optimization of the real space projectors (new method)

 maximal supplied QI-value         = 24.76
 optimisation between [QCUT,QGAM] = [ 11.39, 22.77] = [ 36.31,145.25] Ry 
 Optimized for a Real-space Cutoff    1.00 Angstroem

   l    n(q)    QCUT    max X(q) W(low)/X(q) W(high)/X(q)  e(spline) 
   0      7    11.387    20.381    0.39E-03    0.13E-02    0.15E-06
   0      7    11.387    15.268    0.42E-03    0.14E-02    0.17E-06
   1      6    11.387     5.964    0.41E-03    0.11E-02    0.17E-06
   1      6    11.387     5.382    0.39E-03    0.87E-03    0.15E-06

 ----------------------------------------------------------------------------- 
|                                                                             |
|  ADVICE TO THIS USER RUNNING 'VASP/VAMP'   (HEAR YOUR MASTER'S VOICE ...):  |
|                                                                             |
|      You enforced a specific xc-type in the INCAR file,                     |
|      a different type was found on the POTCAR file                          |
|          I HOPE YOU KNOW, WHAT YOU ARE  DOING                               |
|                                                                             |
 ----------------------------------------------------------------------------- 

  PAW_PBE Ir 06Sep2000                  :
 energy of atom  1       EATOM= -560.1833
 kinetic energy error for atom=    0.0018 (will be added to EATOM!!)
  PAW_PBE O 08Apr2002                   :
 energy of atom  2       EATOM= -432.3788
 kinetic energy error for atom=    0.0224 (will be added to EATOM!!)
  PAW_PBE Ir 06Sep2000                  :
 energy of atom  3       EATOM= -560.1833
 kinetic energy error for atom=    0.0018 (will be added to EATOM!!)
  PAW_PBE O 08Apr2002                   :
 energy of atom  4       EATOM= -432.3788
 kinetic energy error for atom=    0.0224 (will be added to EATOM!!)
 
 
 POSCAR: Ir  O Ir  O                             
  positions in direct lattice
  velocities in cartesian coordinates
 exchange correlation table for  LEXCH =        9
   RHO(1)=    0.500       N(1)  =     2000
   RHO(2)=  100.500       N(2)  =     4000

 VTST: version 3.2, (02/03/18)

 CHAIN: initializing optimizer
 
 OPT: Using VASP Conjugate-Gradient optimizer
 CHAIN: Read ICHAIN            0
 
 POSCAR: Ir  O Ir  O                             
  positions in direct lattice
  velocities in cartesian coordinates
 


--------------------------------------------------------------------------------------------------------


 ion  position               nearest neighbor table
   1  0.125  0.500  0.188-  21 2.00  29 2.00  17 2.02  25 2.02  26 2.02  18 2.02   2 3.20  52 3.20

   2  0.375  0.500  0.188-  22 2.00  30 2.00  26 2.02  18 2.02  66 2.02  74 2.02   1 3.20  51 3.20

   3  0.125  0.000  0.062-  23 2.00  31 2.00  19 2.02  27 2.02  28 2.02  20 2.02   4 3.20  54 3.20

   4  0.375  0.000  0.062-  24 2.00  32 2.00  28 2.02  20 2.02  68 2.02  76 2.02   3 3.20  53 3.20

   5  0.000  0.500  0.062-  17 2.00  23 2.02  31 2.02  73 2.02  81 2.02   6 3.20  56 3.20
   6  0.250  0.500  0.062-  18 2.00  23 2.02  24 2.02  31 2.02  32 2.02   5 3.20  55 3.20
   7  0.000  0.000  0.188-  27 2.00  35 2.00  29 2.02  21 2.02  71 2.02  79 2.02   8 3.20  58 3.20

   8  0.250  0.000  0.188-  28 2.00  36 2.00  21 2.02  29 2.02  30 2.02  22 2.02   7 3.20  57 3.20

   9  0.122  0.500  0.441-  41 1.78  33 1.92  42 1.95  37 2.02  45 2.02  34 2.12  10 3.24
  10  0.375  0.500  0.435-  90 1.96  42 1.96  46 2.00  38 2.00  34 2.02  82 2.02   9 3.24  59 3.25

  11  0.125  0.000  0.313-  39 1.99  47 1.99  44 2.02  36 2.03  35 2.03  43 2.04  61 3.18  12 3.20

  12  0.375  0.000  0.313-  40 1.99  48 1.99  44 2.02  36 2.03  84 2.03  92 2.03  60 3.19  11 3.20

  13  0.002  0.500  0.314-  33 1.91  39 2.02  47 2.02  25 2.03  89 2.04  97 2.04  14 3.18  63 3.25

  14  0.250  0.500  0.312-  34 1.97  26 1.98  39 2.02  47 2.02  40 2.02  48 2.02  13 3.18  62 3.19

  15  0.993  0.000  0.444-  50 1.77  87 1.94  95 1.94  45 2.08  37 2.08  43 2.13  65 3.06  16 3.28

  16  0.249  0.000  0.441-  49 1.79  45 2.02  37 2.02  46 2.04  38 2.04  44 2.09  64 3.22  15 3.28

  17  0.000  0.500  0.140-   5 2.00   1 2.02  52 2.02
  18  0.250  0.500  0.140-   6 2.00   2 2.02   1 2.02
  19  0.000  0.000  0.015-   3 2.02  54 2.02
  20  0.250  0.000  0.015-   3 2.02   4 2.02
  21  0.125  0.808  0.188-   1 2.00   7 2.02   8 2.02
  22  0.375  0.808  0.188-   2 2.00   8 2.02  57 2.02
  23  0.125  0.308  0.062-   3 2.00   5 2.02   6 2.02
  24  0.375  0.308  0.062-   4 2.00   6 2.02  55 2.02
  25  0.000  0.500  0.235-   1 2.02  52 2.02  13 2.03
  26  0.250  0.500  0.235-  14 1.98   2 2.02   1 2.02
  27  0.000  0.000  0.110-   7 2.00   3 2.02  54 2.02
  28  0.250  0.000  0.110-   8 2.00   4 2.02   3 2.02
  29  0.125  0.192  0.188-   1 2.00   7 2.02   8 2.02
  30  0.375  0.192  0.188-   2 2.00   8 2.02  57 2.02
  31  0.125  0.692  0.062-   3 2.00   5 2.02   6 2.02
  32  0.375  0.692  0.062-   4 2.00   6 2.02  55 2.02
  33  0.017  0.500  0.387-  13 1.91   9 1.92
  34  0.249  0.500  0.388-  14 1.97  10 2.02   9 2.12
  35  0.000  0.000  0.265-   7 2.00  61 2.00  11 2.03
  36  0.250  0.000  0.265-   8 2.00  11 2.03  12 2.03
  37  0.124  0.811  0.436-   9 2.02  16 2.02  15 2.08
  38  0.375  0.809  0.435-  10 2.00  64 2.03  16 2.04
  39  0.126  0.307  0.310-  11 1.99  13 2.02  14 2.02
  40  0.375  0.308  0.312-  12 1.99  62 2.02  14 2.02
  41  0.042  0.500  0.497-   9 1.78
  42  0.252  0.500  0.480-   9 1.95  10 1.96
  43  0.000  0.000  0.361-  61 2.02  11 2.04  15 2.13
  44  0.250  0.000  0.361-  11 2.02  12 2.02  16 2.09
  45  0.124  0.189  0.436-   9 2.02  16 2.02  15 2.08
  46  0.375  0.191  0.435-  10 2.00  64 2.03  16 2.04
  47  0.126  0.693  0.310-  11 1.99  13 2.02  14 2.02
  48  0.375  0.692  0.312-  12 1.99  62 2.02  14 2.02
  49  0.249  0.000  0.510-  16 1.79
  50  0.004  0.000  0.512-  15 1.77
  51  0.625  0.500  0.188-  70 2.00  78 2.00  66 2.02  74 2.02  75 2.02  67 2.02   2 3.20  52 3.20

  52  0.875  0.500  0.188-  71 2.00  79 2.00  67 2.02  17 2.02  75 2.02  25 2.02   1 3.20  51 3.20

  53  0.625  0.000  0.062-  72 2.00  80 2.00  68 2.02  76 2.02  77 2.02  69 2.02   4 3.20  54 3.20

  54  0.875  0.000  0.062-  73 2.00  81 2.00  69 2.02  19 2.02  77 2.02  27 2.02   3 3.20  53 3.20

  55  0.500  0.500  0.062-  66 2.00  32 2.02  24 2.02  72 2.02  80 2.02  56 3.20   6 3.20
  56  0.750  0.500  0.062-  67 2.00  72 2.02  73 2.02  80 2.02  81 2.02  55 3.20   5 3.20
  57  0.500  0.000  0.188-  76 2.00  84 2.00  70 2.02  22 2.02  78 2.02  30 2.02   8 3.20  58 3.20

  58  0.750  0.000  0.188-  85 1.99  77 2.00  70 2.02  78 2.02  79 2.02  71 2.02   7 3.20  57 3.20

  59  0.628  0.500  0.442-  91 1.78  83 1.94  90 1.96  86 2.02  94 2.02  82 2.13  10 3.25
  60  0.624  0.000  0.312-  88 1.99  96 1.99  84 2.01  92 2.02  93 2.03  85 2.04  12 3.19  61 3.24

  61  0.877  0.000  0.312-  89 2.00  97 2.00  35 2.00  93 2.01  43 2.02  85 2.04  11 3.18  60 3.24

  62  0.500  0.500  0.312-  82 1.97  74 1.98  88 2.02  96 2.02  40 2.02  48 2.02  63 3.19  14 3.19

  63  0.748  0.500  0.314-  83 1.92  88 2.02  96 2.02  75 2.04  89 2.05  97 2.05  62 3.19  13 3.25

  64  0.500  0.000  0.442-  98 1.80  94 2.03  86 2.03  46 2.03  38 2.03  92 2.10  16 3.22  65 3.27

  65  0.755  0.000  0.433-  93 1.93  87 1.95  95 1.95  94 2.05  86 2.05  15 3.06  64 3.27
  66  0.500  0.500  0.140-  55 2.00  51 2.02   2 2.02
  67  0.750  0.500  0.140-  56 2.00  52 2.02  51 2.02
  68  0.500  0.000  0.015-   4 2.02  53 2.02
  69  0.750  0.000  0.015-  53 2.02  54 2.02
  70  0.625  0.808  0.188-  51 2.00  57 2.02  58 2.02
  71  0.875  0.808  0.188-  52 2.00   7 2.02  58 2.02
  72  0.625  0.308  0.062-  53 2.00  55 2.02  56 2.02
  73  0.875  0.308  0.062-  54 2.00   5 2.02  56 2.02
  74  0.500  0.500  0.235-  62 1.98  51 2.02   2 2.02
  75  0.750  0.500  0.235-  51 2.02  52 2.02  63 2.04
  76  0.500  0.000  0.110-  57 2.00  53 2.02   4 2.02
  77  0.750  0.000  0.110-  58 2.00  54 2.02  53 2.02
  78  0.625  0.192  0.188-  51 2.00  57 2.02  58 2.02
  79  0.875  0.192  0.188-  52 2.00   7 2.02  58 2.02
  80  0.625  0.692  0.062-  53 2.00  55 2.02  56 2.02
  81  0.875  0.692  0.062-  54 2.00   5 2.02  56 2.02
  82  0.501  0.500  0.388-  62 1.97  10 2.02  59 2.13
  83  0.733  0.500  0.388-  63 1.92  59 1.94
  84  0.500  0.000  0.265-  57 2.00  60 2.01  12 2.03
  85  0.751  0.000  0.265-  58 1.99  60 2.04  61 2.04
  86  0.626  0.812  0.439-  59 2.02  64 2.03  65 2.05
  87  0.875  0.815  0.438-  15 1.94  65 1.95
  88  0.624  0.308  0.311-  60 1.99  62 2.02  63 2.02
  89  0.876  0.309  0.314-  61 2.00  13 2.04  63 2.05
  90  0.497  0.500  0.480-  59 1.96  10 1.96
  91  0.708  0.500  0.498-  59 1.78
  92  0.501  0.000  0.361-  60 2.02  12 2.03  64 2.10
  93  0.751  0.000  0.359-  65 1.93  61 2.01  60 2.03
  94  0.626  0.188  0.439-  59 2.02  64 2.03  65 2.05
  95  0.875  0.185  0.438-  15 1.94  65 1.95
  96  0.624  0.692  0.311-  60 1.99  62 2.02  63 2.02
  97  0.876  0.691  0.314-  61 2.00  13 2.04  63 2.05
  98  0.497  0.000  0.511-  64 1.80
 
  LATTYP: Found a simple orthorhombic cell.
 ALAT       =     6.4702430000
 B/A-ratio  =     1.9796060210
 C/A-ratio  =     4.0000000000
  
  Lattice vectors:
  
 A1 = (   0.0000000000,  -6.4702430000,   0.0000000000)
 A2 = ( -12.8085320000,   0.0000000000,   0.0000000000)
 A3 = (   0.0000000000,   0.0000000000, -25.8809720000)


Analysis of symmetry for initial positions (statically):
=====================================================================
 Subroutine PRICEL returns:
 Original cell was already a primitive cell.
 

 Routine SETGRP: Setting up the symmetry group for a 
 simple orthorhombic supercell.


 Subroutine GETGRP returns: Found  2 space group operations
 (whereof  2 operations were pure point group operations)
 out of a pool of  8 trial point group operations.


The static configuration has the point symmetry C_1h.


Analysis of symmetry for dynamics (positions and initial velocities):
=====================================================================
 Subroutine PRICEL returns:
 Original cell was already a primitive cell.
 

 Routine SETGRP: Setting up the symmetry group for a 
 simple orthorhombic supercell.


 Subroutine GETGRP returns: Found  2 space group operations
 (whereof  2 operations were pure point group operations)
 out of a pool of  8 trial point group operations.


The dynamic configuration has the point symmetry C_1h.


Analysis of constrained symmetry for selective dynamics:
=====================================================================
 Subroutine PRICEL returns:
 Original cell was already a primitive cell.
 

 Routine SETGRP: Setting up the symmetry group for a 
 simple orthorhombic supercell.


 Subroutine GETGRP returns: Found  2 space group operations
 (whereof  2 operations were pure point group operations)
 out of a pool of  8 trial point group operations.


The constrained configuration has the point symmetry C_1h.


 Subroutine INISYM returns: Found  2 space group operations
 (whereof  2 operations are pure point group operations),
 and found     1 'primitive' translations

 
 
 KPOINTS: Automatic mesh                          

Automatic generation of k-mesh.
Space group operators:
 irot       det(A)        alpha          n_x          n_y          n_z        tau_x        tau_y        tau_z
    1     1.000000     0.000001     1.000000     0.000000     0.000000     0.000000     0.000000     0.000000
    2    -1.000000   180.000000     0.000000     1.000000     0.000000     0.000000     0.000000     0.000000
 
 Subroutine IBZKPT returns following result:
 ===========================================
 
 Found      4 irreducible k-points:
 
 Following reciprocal coordinates:
            Coordinates               Weight
  0.000000  0.000000  0.000000      1.000000
  0.333333  0.000000  0.000000      2.000000
  0.000000  0.333333  0.000000      2.000000
  0.333333  0.333333  0.000000      4.000000
 
 Following cartesian coordinates:
            Coordinates               Weight
  0.000000  0.000000  0.000000      1.000000
  0.026024  0.000000  0.000000      2.000000
  0.000000  0.051518  0.000000      2.000000
  0.026024  0.051518  0.000000      4.000000
 


--------------------------------------------------------------------------------------------------------




 Dimension of arrays:
   k-points           NKPTS =      4   k-points in BZ     NKDIM =      4   number of bands    NBANDS=    408
   number of dos      NEDOS =    301   number of ions     NIONS =     98
   non local maximal  LDIM  =      6   non local SUM 2l+1 LMDIM =     18
   total plane-waves  NPLWV = 362880
   max r-space proj   IRMAX =   2532   max aug-charges    IRDMAX=  12432
   dimension x,y,z NGX =    70 NGY =   36 NGZ =  144
   dimension x,y,z NGXF=   140 NGYF=   72 NGZF=  288
   support grid    NGXF=   140 NGYF=   72 NGZF=  288
   ions per type =              16  34  15  33
   NGX,Y,Z   is equivalent  to a cutoff of   9.09,  9.25,  9.25 a.u.
   NGXF,Y,Z  is equivalent  to a cutoff of  18.17, 18.50, 18.50 a.u.

 SYSTEM =  unknown system                          
 POSCAR =  Ir  O Ir  O                             

 Startparameter for this run:
   NWRITE =      2    write-flag & timer
   PREC   = normal    normal or accurate (medium, high low for compatibility)
   ISTART =      0    job   : 0-new  1-cont  2-samecut
   ICHARG =      2    charge: 1-file 2-atom 10-const
   ISPIN  =      1    spin polarized calculation?
   LNONCOLLINEAR =      F non collinear calculations
   LSORBIT =      F    spin-orbit coupling
   INIWAV =      1    electr: 0-lowe 1-rand  2-diag
   LASPH  =      F    aspherical Exc in radial PAW
   METAGGA=      F    non-selfconsistent MetaGGA calc.

 Electronic Relaxation 1
   ENCUT  =  500.0 eV  36.75 Ry    6.06 a.u.  23.35 11.80 47.19*2*pi/ulx,y,z
   ENINI  =  500.0     initial cutoff
   ENAUG  =  605.4 eV  augmentation charge cutoff
   NELM   =     60;   NELMIN=  4; NELMDL= -5     # of ELM steps 
   EDIFF  = 0.1E-04   stopping-criterion for ELM
   LREAL  =      T    real-space projection
   NLSPLINE    = F    spline interpolate recip. space projectors
   LCOMPAT=      F    compatible to vasp.4.4
   GGA_COMPAT  = T    GGA compatible to vasp.4.4-vasp.4.6
   LMAXPAW     = -100 max onsite density
   LMAXMIX     =    2 max onsite mixed and CHGCAR
   VOSKOWN=      0    Vosko Wilk Nusair interpolation
   ROPT   =   -0.00050  -0.00050  -0.00050  -0.00050
 Ionic relaxation
   EDIFFG = -.5E-01   stopping-criterion for IOM
   NSW    =    500    number of steps for IOM
   NBLOCK =      1;   KBLOCK =    500    inner block; outer block 
   IBRION =      2    ionic relax: 0-MD 1-quasi-New 2-CG
   NFREE  =      1    steps in history (QN), initial steepest desc. (CG)
   ISIF   =      2    stress and relaxation
   IWAVPR =     11    prediction:  0-non 1-charg 2-wave 3-comb
   ISYM   =      2    0-nonsym 1-usesym 2-fastsym
   LCORR  =      T    Harris-Foulkes like correction to forces

   POTIM  = 0.5000    time-step for ionic-motion
   TEIN   =    0.0    initial temperature
   TEBEG  =    0.0;   TEEND  =   0.0 temperature during run
   SMASS  =  -3.00    Nose mass-parameter (am)
   estimated Nose-frequenzy (Omega)   =  0.10E-29 period in steps =****** mass=  -0.375E-26a.u.
   SCALEE = 1.0000    scale energy and forces
   NPACO  =    256;   APACO  = 16.0  distance and # of slots for P.C.
   PSTRESS=    0.0 pullay stress

  Mass of Ions in am
   POMASS = 192.22 16.00192.22 16.00
  Ionic Valenz
   ZVAL   =   9.00  6.00  9.00  6.00
  Atomic Wigner-Seitz radii
   RWIGS  =  -1.00 -1.00 -1.00 -1.00
  virtual crystal weights 
   VCA    =   1.00  1.00  1.00  1.00
   NELECT =     681.0000    total number of electrons
   NUPDOWN=      -1.0000    fix difference up-down

 DOS related values:
   EMIN   =  10.00;   EMAX   =-10.00  energy-range for DOS
   EFERMI =   0.00
   ISMEAR =     0;   SIGMA  =   0.05  broadening in eV -4-tet -1-fermi 0-gaus

 Electronic relaxation 2 (details)
   IALGO  =     68    algorithm
   LDIAG  =      T    sub-space diagonalisation (order eigenvalues)
   LSUBROT=      F    optimize rotation matrix (better conditioning)
   TURBO    =      0    0=normal 1=particle mesh
   IRESTART =      0    0=no restart 2=restart with 2 vectors
   NREBOOT  =      0    no. of reboots
   NMIN     =      0    reboot dimension
   EREF     =   0.00    reference energy to select bands
   IMIX   =      4    mixing-type and parameters
     AMIX     =   0.40;   BMIX     =  1.00
     AMIX_MAG =   1.60;   BMIX_MAG =  1.00
     AMIN     =   0.10
     WC   =   100.;   INIMIX=   1;  MIXPRE=   1;  MAXMIX= -45

 Intra band minimization:
   WEIMIN = 0.0010     energy-eigenvalue tresh-hold
   EBREAK =  0.61E-08  absolut break condition
   DEPER  =   0.30     relativ break condition  

   TIME   =   0.40     timestep for ELM

  volume/ion in A,a.u.               =      21.89       147.70
  Fermi-wavevector in a.u.,A,eV,Ry     =   1.116838  2.110519 16.970929  1.247328
  Thomas-Fermi vector in A             =   2.253456
 
 Write flags
   LWAVE        =      F    write WAVECAR
   LDOWNSAMPLE  =      F    k-point downsampling of WAVECAR
   LCHARG       =      F    write CHGCAR
   LVTOT        =      F    write LOCPOT, total local potential
   LVHAR        =      F    write LOCPOT, Hartree potential only
   LELF         =      F    write electronic localiz. function (ELF)
   LORBIT       =      0    0 simple, 1 ext, 2 COOP (PROOUT), +10 PAW based schemes


 Dipole corrections
   LMONO  =      F    monopole corrections only (constant potential shift)
   LDIPOL =      T    correct potential (dipole corrections)
   IDIPOL =      3    1-x, 2-y, 3-z, 4-all directions 
   EPSILON=  1.0000000 bulk dielectric constant

 Exchange correlation treatment:
   GGA     =    RP    GGA type
   LEXCH   =     9    internal setting for exchange type
   VOSKOWN=      0    Vosko Wilk Nusair interpolation
   LHFCALC =     F    Hartree Fock is set to
   LHFONE  =     F    Hartree Fock one center treatment
   AEXX    =    0.0000 exact exchange contribution

 Linear response parameters
   LEPSILON=     F    determine dielectric tensor
   LRPA    =     F    only Hartree local field effects (RPA)
   LNABLA  =     F    use nabla operator in PAW spheres
   LVEL    =     F    velocity operator in full k-point grid
   LINTERFAST=   F  fast interpolation
   KINTER  =     0    interpolate to denser k-point grid
   CSHIFT  =0.1000    complex shift for real part using Kramers Kronig
   OMEGAMAX=  -1.0    maximum frequency
   DEG_THRESHOLD= 0.2000000E-02 threshold for treating states as degnerate
   RTIME   =   -0.100 relaxation time in fs
  (WPLASMAI=    0.000 imaginary part of plasma frequency in eV, 0.658/RTIME)
   DFIELD  = 0.0000000 0.0000000 0.0000000 field for delta impulse in time
 
 Orbital magnetization related:
   ORBITALMAG=     F  switch on orbital magnetization
   LCHIMAG   =     F  perturbation theory with respect to B field
   DQ        =  0.001000  dq finite difference perturbation B field
   LLRAUG    =     F  two centre corrections for induced B field



--------------------------------------------------------------------------------------------------------


 conjugate gradient relaxation of ions
   using selective dynamics as specified on POSCAR
 charge density and potential will be updated during run
 non-spin polarized calculation
 RMM-DIIS sequential band-by-band and
  variant of blocked Davidson during initial phase
 perform sub-space diagonalisation
    before iterative eigenvector-optimisation
 modified Broyden-mixing scheme, WC =      100.0
 initial mixing is a Kerker type mixing with AMIX =  0.4000 and BMIX =      1.0000
 Hartree-type preconditioning will be used
 using additional bands           67
 real space projection scheme for non local part
 use partial core corrections
 calculate Harris-corrections to forces 
   (improved forces if not selfconsistent)
 use gradient corrections 
 use of overlap-Matrix (Vanderbilt PP)
 Gauss-broadening in eV      SIGMA  =   0.05


--------------------------------------------------------------------------------------------------------


  energy-cutoff  :      500.00
  volume of cell :     2144.87
      direct lattice vectors                 reciprocal lattice vectors
    12.808532000  0.000000000  0.000000000     0.078072959  0.000000000  0.000000000
     0.000000000  6.470243000  0.000000000     0.000000000  0.154553701  0.000000000
     0.000000000  0.000000000 25.880972000     0.000000000  0.000000000  0.038638425

  length of vectors
    12.808532000  6.470243000 25.880972000     0.078072959  0.154553701  0.038638425


 
 k-points in units of 2pi/SCALE and weight: Automatic mesh                          
   0.00000000  0.00000000  0.00000000       0.111
   0.02602432  0.00000000  0.00000000       0.222
   0.00000000  0.05151790  0.00000000       0.222
   0.02602432  0.05151790  0.00000000       0.444
 
 k-points in reciprocal lattice and weights: Automatic mesh                          
   0.00000000  0.00000000  0.00000000       0.111
   0.33333333  0.00000000  0.00000000       0.222
   0.00000000  0.33333333  0.00000000       0.222
   0.33333333  0.33333333  0.00000000       0.444
 
 position of ions in fractional coordinates (direct lattice) 
   0.12500000  0.50000000  0.18750000
   0.37500000  0.50000000  0.18750000
   0.12500000  0.00000000  0.06250000
   0.37500000  0.00000000  0.06250000
   0.00000000  0.50000000  0.06250000
   0.25000000  0.50000000  0.06250000
   0.00000000  0.00000000  0.18750000
   0.25000000  0.00000000  0.18750000
   0.12211537  0.50000000  0.44067068
   0.37475107  0.50000000  0.43490483
   0.12512816  0.00000000  0.31279259
   0.37491034  0.00000000  0.31281151
   0.00217389  0.50000000  0.31392298
   0.25042695  0.50000000  0.31181039
   0.99311913  0.00000000  0.44362833
   0.24892771  0.00000000  0.44126346
   0.00000000  0.50000000  0.13961000
   0.25000000  0.50000000  0.13961000
   0.00000000  0.00000000  0.01461000
   0.25000000  0.00000000  0.01461000
   0.12500000  0.80844000  0.18750000
   0.37500000  0.80844000  0.18750000
   0.12500000  0.30844000  0.06250000
   0.37500000  0.30844000  0.06250000
   0.00000000  0.50000000  0.23539000
   0.25000000  0.50000000  0.23539000
   0.00000000  0.00000000  0.11039000
   0.25000000  0.00000000  0.11039000
   0.12500000  0.19156000  0.18750000
   0.37500000  0.19156000  0.18750000
   0.12500000  0.69156000  0.06250000
   0.37500000  0.69156000  0.06250000
   0.01730553  0.50000000  0.38745324
   0.24910958  0.50000000  0.38783744
   0.00018119  0.00000000  0.26478826
   0.24998285  0.00000000  0.26477872
   0.12362848  0.81138035  0.43597922
   0.37470215  0.80925795  0.43495848
   0.12614899  0.30747371  0.31021570
   0.37509423  0.30778101  0.31212274
   0.04162200  0.50000000  0.49688556
   0.25203467  0.50000000  0.48012919
   0.00014043  0.00000000  0.36142272
   0.24969468  0.00000000  0.36055562
   0.12362848  0.18861965  0.43597922
   0.37470215  0.19074205  0.43495848
   0.12614899  0.69252629  0.31021570
   0.37509423  0.69221899  0.31212274
   0.24931084  0.00000000  0.51048863
   0.00412603  0.00000000  0.51189782
   0.62500000  0.50000000  0.18750000
   0.87500000  0.50000000  0.18750000
   0.62500000  0.00000000  0.06250000
   0.87500000  0.00000000  0.06250000
   0.50000000  0.50000000  0.06250000
   0.75000000  0.50000000  0.06250000
   0.50000000  0.00000000  0.18750000
   0.75000000  0.00000000  0.18750000
   0.62778288  0.50000000  0.44150502
   0.62381611  0.00000000  0.31207810
   0.87698968  0.00000000  0.31249620
   0.49955909  0.50000000  0.31204715
   0.74818933  0.50000000  0.31412570
   0.50021949  0.00000000  0.44192508
   0.75487617  0.00000000  0.43333706
   0.50000000  0.50000000  0.13961000
   0.75000000  0.50000000  0.13961000
   0.50000000  0.00000000  0.01461000
   0.75000000  0.00000000  0.01461000
   0.62500000  0.80844000  0.18750000
   0.87500000  0.80844000  0.18750000
   0.62500000  0.30844000  0.06250000
   0.87500000  0.30844000  0.06250000
   0.50000000  0.50000000  0.23539000
   0.75000000  0.50000000  0.23539000
   0.50000000  0.00000000  0.11039000
   0.75000000  0.00000000  0.11039000
   0.62500000  0.19156000  0.18750000
   0.87500000  0.19156000  0.18750000
   0.62500000  0.69156000  0.06250000
   0.87500000  0.69156000  0.06250000
   0.50097726  0.50000000  0.38817780
   0.73345766  0.50000000  0.38806442
   0.49986752  0.00000000  0.26461170
   0.75054892  0.00000000  0.26451358
   0.62642971  0.81192569  0.43879064
   0.87464157  0.81464589  0.43787123
   0.62374133  0.30786954  0.31069406
   0.87573542  0.30929815  0.31392214
   0.49677300  0.50000000  0.48045356
   0.70821545  0.50000000  0.49770942
   0.50059967  0.00000000  0.36076831
   0.75090574  0.00000000  0.35889142
   0.62642971  0.18807431  0.43879064
   0.87464157  0.18535411  0.43787123
   0.62374133  0.69213046  0.31069406
   0.87573542  0.69070185  0.31392214
   0.49695417  0.00000000  0.51127429
 
 position of ions in cartesian coordinates  (Angst):
   1.60106650  3.23512150  4.85268225
   4.80319950  3.23512150  4.85268225
   1.60106650  0.00000000  1.61756075
   4.80319950  0.00000000  1.61756075
   0.00000000  3.23512150  1.61756075
   3.20213300  3.23512150  1.61756075
   0.00000000  0.00000000  4.85268225
   3.20213300  0.00000000  4.85268225
   1.56411867  3.23512150 11.40498553
   4.80001108  3.23512150 11.25575967
   1.60270808  0.00000000  8.09537639
   4.80205114  0.00000000  8.09586601
   0.02784428  3.23512150  8.12463196
   3.20760158  3.23512150  8.06995590
  12.72039813  0.00000000 11.48153236
   3.18839855  0.00000000 11.42032713
   0.00000000  3.23512150  3.61324250
   3.20213300  3.23512150  3.61324250
   0.00000000  0.00000000  0.37812100
   3.20213300  0.00000000  0.37812100
   1.60106650  5.23080325  4.85268225
   4.80319950  5.23080325  4.85268225
   1.60106650  1.99568175  1.61756075
   4.80319950  1.99568175  1.61756075
   0.00000000  3.23512150  6.09212200
   3.20213300  3.23512150  6.09212200
   0.00000000  0.00000000  2.85700050
   3.20213300  0.00000000  2.85700050
   1.60106650  1.23943975  4.85268225
   4.80319950  1.23943975  4.85268225
   1.60106650  4.47456125  1.61756075
   4.80319950  4.47456125  1.61756075
   0.22165842  3.23512150 10.02766637
   3.19072804  3.23512150 10.03761001
   0.00232072  0.00000000  6.85297755
   3.20191329  0.00000000  6.85273061
   1.58349936  5.24982800 11.28356589
   4.79938444  5.23609556 11.25714830
   1.61578334  1.98942965  8.02868375
   4.80440639  1.99141795  8.07803994
   0.53311670  3.23512150 12.85988121
   3.22819412  3.23512150 12.42621025
   0.00179866  0.00000000  9.35397122
   3.19822228  0.00000000  9.33152992
   1.58349936  1.22041500 11.28356589
   4.79938444  1.23414744 11.25714830
   1.61578334  4.48081335  8.02868375
   4.80440639  4.47882505  8.07803994
   3.19330588  0.00000000 13.21194188
   0.05284838  0.00000000 13.24841327
   8.00533250  3.23512150  4.85268225
  11.20746550  3.23512150  4.85268225
   8.00533250  0.00000000  1.61756075
  11.20746550  0.00000000  1.61756075
   6.40426600  3.23512150  1.61756075
   9.60639900  3.23512150  1.61756075
   6.40426600  0.00000000  4.85268225
   9.60639900  0.00000000  4.85268225
   8.04097716  3.23512150 11.42657915
   7.99016855  0.00000000  8.07688448
  11.23295042  0.00000000  8.08770541
   6.39861865  3.23512150  8.07608362
   9.58320693  3.23512150  8.12987851
   6.40707732  0.00000000 11.43745066
   9.66885564  0.00000000 11.21518429
   6.40426600  3.23512150  3.61324250
   9.60639900  3.23512150  3.61324250
   6.40426600  0.00000000  0.37812100
   9.60639900  0.00000000  0.37812100
   8.00533250  5.23080325  4.85268225
  11.20746550  5.23080325  4.85268225
   8.00533250  1.99568175  1.61756075
  11.20746550  1.99568175  1.61756075
   6.40426600  3.23512150  6.09212200
   9.60639900  3.23512150  6.09212200
   6.40426600  0.00000000  2.85700050
   9.60639900  0.00000000  2.85700050
   8.00533250  1.23943975  4.85268225
  11.20746550  1.23943975  4.85268225
   8.00533250  4.47456125  1.61756075
  11.20746550  4.47456125  1.61756075
   6.41678325  3.23512150 10.04641871
   9.39451595  3.23512150 10.04348451
   6.40256916  0.00000000  6.84840809
   9.61342982  0.00000000  6.84586862
   8.02364496  5.25335650 11.35632834
  11.20287452  5.27095685 11.33253299
   7.98921074  1.99199076  8.04106423
  11.21688513  2.00123422  8.12461004
   6.36293289  3.23512150 12.43460522
   9.07120027  3.23512150 12.88120366
   6.41194684  0.00000000  9.33703457
   9.61800018  0.00000000  9.28845878
   8.02364496  1.21688650 11.35632834
  11.20287452  1.19928615 11.33253299
   7.98921074  4.47825224  8.04106423
  11.21688513  4.46900878  8.12461004
   6.36525335  0.00000000 13.23227565
 


--------------------------------------------------------------------------------------------------------


 k-point  1 :   0.0000 0.0000 0.0000  plane waves:   54455
 k-point  2 :   0.3333 0.0000 0.0000  plane waves:   54459
 k-point  3 :   0.0000 0.3333 0.0000  plane waves:   54468
 k-point  4 :   0.3333 0.3333 0.0000  plane waves:   54434

 maximum and minimum number of plane-waves per node :      5497     5417

 maximum number of plane-waves:     54468
 maximum index in each direction: 
   IXMAX=   23   IYMAX=   11   IZMAX=   47
   IXMIN=  -23   IYMIN=  -12   IZMIN=  -47


 real space projection operators:
  total allocation   :      13444.75 KBytes
  max/ min on nodes  :       1351.70       1337.05


 parallel 3D FFT for wavefunctions:
    minimum data exchange during FFTs selected (reduces bandwidth)
 parallel 3D FFT for charge:
    minimum data exchange during FFTs selected (reduces bandwidth)


 total amount of memory used by VASP MPI-rank0    83676. kBytes
=======================================================================

   base      :      30000. kBytes
   nonlr-proj:       5847. kBytes
   fftplans  :       3841. kBytes
   grid      :       7459. kBytes
   one-center:        155. kBytes
   wavefun   :      36374. kBytes
 
     INWAV:  cpu time    0.0000: real time    0.0002
 Broyden mixing: mesh for mixing (old mesh)
   NGX = 47   NGY = 23   NGZ = 95
  (NGX  =140   NGY  = 72   NGZ  =288)
  gives a total of 102695 points

 initial charge density was supplied:
 charge density of overlapping atoms calculated
 number of electron     681.0000000 magnetization 
 keeping initial charge density in first step


--------------------------------------------------------------------------------------------------------


 Maximum index for non-local projection operator          276
 Maximum index for augmentation-charges          641 (set IRDMAX)


--------------------------------------------------------------------------------------------------------


 First call to EWALD:  gamma=   0.137
 Maximum number of real-space cells 3x 5x 2
 Maximum number of reciprocal cells 3x 2x 5

    FEWALD:  cpu time    0.0036: real time    0.0036


--------------------------------------- Iteration      1(   1)  ---------------------------------------


    POTLOK:  cpu time    0.0422: real time    0.0471
    SETDIJ:  cpu time    0.0082: real time    0.0100
     EDDAV:  cpu time    5.8032: real time    5.8273
       DOS:  cpu time    0.0017: real time    0.0028
    --------------------------------------------
      LOOP:  cpu time    5.8553: real time    5.8871

 eigenvalue-minimisations  :  3288
 total energy-change (2. order) : 0.7774158E+04  (-0.3075317E+05)
 number of electron     681.0000000 magnetization 
 augmentation part      681.0000000 magnetization 

 DIPCOR: dipole corrections for dipol
 direction  3 min pos   217,
 dipolmoment           0.000000      0.000000      0.000011 electrons x Angstroem
 Tr[quadrupol]    -12707.608086

 energy correction for charged system         0.000000 eV
 dipol+quadrupol energy correction           -0.000000 eV
 added-field ion interaction         -0.000076 eV  (added to PSCEN)


 Free energy of the ion-electron system (eV)
  ---------------------------------------------------
  alpha Z        PSCENC =      1739.63037017
  Ewald energy   TEWEN  =    225826.72232937
  -Hartree energ DENC   =   -271589.48344239
  -exchange      EXHF   =         0.00000000
  -V(xc)+E(xc)   XCENC  =      1295.14071892
  PAW double counting   =     40354.58655455   -39177.98878306
  entropy T*S    EENTRO =        -0.05245320
  eigenvalues    EBANDS =      3019.27679500
  atomic energy  EATOM  =     46306.32569913
  Solvation  Ediel_sol  =         0.00000000
  ---------------------------------------------------
  free energy    TOTEN  =      7774.15778851 eV

  energy without entropy =     7774.21024171  energy(sigma->0) =     7774.18401511


--------------------------------------------------------------------------------------------------------




--------------------------------------- Iteration      1(   2)  ---------------------------------------


     EDDAV:  cpu time    5.9456: real time    5.9617
       DOS:  cpu time    0.0011: real time    0.0011
    --------------------------------------------
      LOOP:  cpu time    5.9467: real time    5.9628

 eigenvalue-minimisations  :  3416
 total energy-change (2. order) :-0.7103747E+04  (-0.6633809E+04)
 number of electron     681.0000000 magnetization 
 augmentation part      681.0000000 magnetization 

 DIPCOR: dipole corrections for dipol
 direction  3 min pos   217,
 dipolmoment           0.000000      0.000000      0.000011 electrons x Angstroem
 Tr[quadrupol]    -12707.608086

 energy correction for charged system         0.000000 eV
 dipol+quadrupol energy correction           -0.000000 eV
 added-field ion interaction         -0.000076 eV  (added to PSCEN)


 Free energy of the ion-electron system (eV)
  ---------------------------------------------------
  alpha Z        PSCENC =      1739.63037017
  Ewald energy   TEWEN  =    225826.72232937
  -Hartree energ DENC   =   -271589.48344239
  -exchange      EXHF   =         0.00000000
  -V(xc)+E(xc)   XCENC  =      1295.14071892
  PAW double counting   =     40354.58655455   -39177.98878306
  entropy T*S    EENTRO =        -0.03370148
  eigenvalues    EBANDS =     -4084.48900557
  atomic energy  EATOM  =     46306.32569913
  Solvation  Ediel_sol  =         0.00000000
  ---------------------------------------------------
  free energy    TOTEN  =       670.41073966 eV

  energy without entropy =      670.44444114  energy(sigma->0) =      670.42759040


--------------------------------------------------------------------------------------------------------




--------------------------------------- Iteration      1(   3)  ---------------------------------------


     EDDAV:  cpu time    7.3316: real time    7.3518
       DOS:  cpu time    0.0012: real time    0.0012
    --------------------------------------------
      LOOP:  cpu time    7.3328: real time    7.3530

 eigenvalue-minimisations  :  4440
 total energy-change (2. order) :-0.1344765E+04  (-0.1292699E+04)
 number of electron     681.0000000 magnetization 
 augmentation part      681.0000000 magnetization 

 DIPCOR: dipole corrections for dipol
 direction  3 min pos   217,
 dipolmoment           0.000000      0.000000      0.000011 electrons x Angstroem
 Tr[quadrupol]    -12707.608086

 energy correction for charged system         0.000000 eV
 dipol+quadrupol energy correction           -0.000000 eV
 added-field ion interaction         -0.000076 eV  (added to PSCEN)


 Free energy of the ion-electron system (eV)
  ---------------------------------------------------
  alpha Z        PSCENC =      1739.63037017
  Ewald energy   TEWEN  =    225826.72232937
  -Hartree energ DENC   =   -271589.48344239
  -exchange      EXHF   =         0.00000000
  -V(xc)+E(xc)   XCENC  =      1295.14071892
  PAW double counting   =     40354.58655455   -39177.98878306
  entropy T*S    EENTRO =        -0.07414678
  eigenvalues    EBANDS =     -5429.21371292
  atomic energy  EATOM  =     46306.32569913
  Solvation  Ediel_sol  =         0.00000000
  ---------------------------------------------------
  free energy    TOTEN  =      -674.35441299 eV

  energy without entropy =     -674.28026621  energy(sigma->0) =     -674.31733960


--------------------------------------------------------------------------------------------------------




--------------------------------------- Iteration      1(   4)  ---------------------------------------


     EDDAV:  cpu time    7.1913: real time    7.2114
       DOS:  cpu time    0.0011: real time    0.0011
    --------------------------------------------
      LOOP:  cpu time    7.1924: real time    7.2126

 eigenvalue-minimisations  :  4336
 total energy-change (2. order) :-0.9512719E+02  (-0.9103125E+02)
 number of electron     681.0000000 magnetization 
 augmentation part      681.0000000 magnetization 

 DIPCOR: dipole corrections for dipol
 direction  3 min pos   217,
 dipolmoment           0.000000      0.000000      0.000011 electrons x Angstroem
 Tr[quadrupol]    -12707.608086

 energy correction for charged system         0.000000 eV
 dipol+quadrupol energy correction           -0.000000 eV
 added-field ion interaction         -0.000076 eV  (added to PSCEN)


 Free energy of the ion-electron system (eV)
  ---------------------------------------------------
  alpha Z        PSCENC =      1739.63037017
  Ewald energy   TEWEN  =    225826.72232937
  -Hartree energ DENC   =   -271589.48344239
  -exchange      EXHF   =         0.00000000
  -V(xc)+E(xc)   XCENC  =      1295.14071892
  PAW double counting   =     40354.58655455   -39177.98878306
  entropy T*S    EENTRO =        -0.09004959
  eigenvalues    EBANDS =     -5524.32500142
  atomic energy  EATOM  =     46306.32569913
  Solvation  Ediel_sol  =         0.00000000
  ---------------------------------------------------
  free energy    TOTEN  =      -769.48160430 eV

  energy without entropy =     -769.39155471  energy(sigma->0) =     -769.43657951


--------------------------------------------------------------------------------------------------------




--------------------------------------- Iteration      1(   5)  ---------------------------------------


     EDDAV:  cpu time    6.8957: real time    6.9230
       DOS:  cpu time    0.0012: real time    0.0012
    CHARGE:  cpu time    0.1612: real time    0.1617
    MIXING:  cpu time    0.0018: real time    0.0028
    --------------------------------------------
      LOOP:  cpu time    7.0599: real time    7.0888

 eigenvalue-minimisations  :  4120
 total energy-change (2. order) :-0.3636729E+01  (-0.3586746E+01)
 number of electron     681.0000525 magnetization 
 augmentation part      115.8781924 magnetization 

 DIPCOR: dipole corrections for dipol
 direction  3 min pos   217,
 dipolmoment           0.000000      0.000000      0.000011 electrons x Angstroem
 Tr[quadrupol]    -12707.608086

 energy correction for charged system         0.000000 eV
 dipol+quadrupol energy correction           -0.000000 eV
 added-field ion interaction         -0.000076 eV  (added to PSCEN)


 Broyden mixing:
  rms(total) = 0.17719E+02    rms(broyden)= 0.17718E+02
  rms(prec ) = 0.17962E+02
  weight for this iteration     100.00

 Free energy of the ion-electron system (eV)
  ---------------------------------------------------
  alpha Z        PSCENC =      1739.63037017
  Ewald energy   TEWEN  =    225826.72232937
  -Hartree energ DENC   =   -271589.48344239
  -exchange      EXHF   =         0.00000000
  -V(xc)+E(xc)   XCENC  =      1295.14071892
  PAW double counting   =     40354.58655455   -39177.98878306
  entropy T*S    EENTRO =        -0.09155923
  eigenvalues    EBANDS =     -5527.96022081
  atomic energy  EATOM  =     46306.32569913
  Solvation  Ediel_sol  =         0.00000000
  ---------------------------------------------------
  free energy    TOTEN  =      -773.11833333 eV

  energy without entropy =     -773.02677410  energy(sigma->0) =     -773.07255372


--------------------------------------------------------------------------------------------------------




--------------------------------------- Iteration      1(   6)  ---------------------------------------


    POTLOK:  cpu time    0.0368: real time    0.0376
    SETDIJ:  cpu time    0.0070: real time    0.0073
    EDDIAG:  cpu time    0.7967: real time    0.8001
  RMM-DIIS:  cpu time    2.4976: real time    2.5046
    ORTHCH:  cpu time    0.2401: real time    0.2407
       DOS:  cpu time    0.0012: real time    0.0012
    CHARGE:  cpu time    0.1602: real time    0.1607
    MIXING:  cpu time    0.0019: real time    0.0019
    --------------------------------------------
      LOOP:  cpu time    3.7415: real time    3.7541

 eigenvalue-minimisations  :  3611
 total energy-change (2. order) : 0.9619326E+02  (-0.1063216E+03)
 number of electron     681.0000473 magnetization 
 augmentation part      127.3608483 magnetization 

 DIPCOR: dipole corrections for dipol
 direction  3 min pos   217,
 dipolmoment           0.000000      0.000000      0.477643 electrons x Angstroem
 Tr[quadrupol]    -12692.337798

 energy correction for charged system         0.000000 eV
 dipol+quadrupol energy correction           -0.009625 eV
 added-field ion interaction         -3.278122 eV  (added to PSCEN)


 Broyden mixing:
  rms(total) = 0.10619E+02    rms(broyden)= 0.10616E+02
  rms(prec ) = 0.11194E+02
  weight for this iteration     100.00

 eigenvalues of (default mixing * dielectric matrix)
  average eigenvalue GAMMA=   0.9805
  0.9805

 Free energy of the ion-electron system (eV)
  ---------------------------------------------------
  alpha Z        PSCENC =      1736.34269814
  Ewald energy   TEWEN  =    225826.72232937
  -Hartree energ DENC   =   -271784.04210452
  -exchange      EXHF   =         0.00000000
  -V(xc)+E(xc)   XCENC  =      1361.39734081
  PAW double counting   =     48327.59077326   -47216.50543343
  entropy T*S    EENTRO =        -0.06791839
  eigenvalues    EBANDS =     -5234.68846083
  atomic energy  EATOM  =     46306.32569913
  Solvation  Ediel_sol  =         0.00000000
  ---------------------------------------------------
  free energy    TOTEN  =      -676.92507646 eV

  energy without entropy =     -676.85715807  energy(sigma->0) =     -676.89111727


--------------------------------------------------------------------------------------------------------




--------------------------------------- Iteration      1(   7)  ---------------------------------------


    POTLOK:  cpu time    0.0350: real time    0.0353
    SETDIJ:  cpu time    0.0061: real time    0.0061
    EDDIAG:  cpu time    0.7968: real time    0.7988
  RMM-DIIS:  cpu time    2.7180: real time    2.7249
    ORTHCH:  cpu time    0.2402: real time    0.2409
       DOS:  cpu time    0.0011: real time    0.0011
    CHARGE:  cpu time    0.1581: real time    0.1585
    MIXING:  cpu time    0.0016: real time    0.0016
    --------------------------------------------
      LOOP:  cpu time    3.9568: real time    3.9671

 eigenvalue-minimisations  :  3946
 total energy-change (2. order) :-0.2593335E+03  (-0.6816642E+02)
 number of electron     681.0000475 magnetization 
 augmentation part      119.6143243 magnetization 

 DIPCOR: dipole corrections for dipol
 direction  3 min pos   217,
 dipolmoment           0.000000      0.000000     -3.936755 electrons x Angstroem
 Tr[quadrupol]    -12749.048246

 energy correction for charged system         0.000000 eV
 dipol+quadrupol energy correction           -0.653857 eV
 added-field ion interaction         27.018421 eV  (added to PSCEN)


 Broyden mixing:
  rms(total) = 0.20542E+02    rms(broyden)= 0.20541E+02
  rms(prec ) = 0.22716E+02
  weight for this iteration     100.00

 eigenvalues of (default mixing * dielectric matrix)
  average eigenvalue GAMMA=   0.5876
  1.0745  0.1006

 Free energy of the ion-electron system (eV)
  ---------------------------------------------------
  alpha Z        PSCENC =      1765.99501064
  Ewald energy   TEWEN  =    225826.72232937
  -Hartree energ DENC   =   -272911.41013304
  -exchange      EXHF   =         0.00000000
  -V(xc)+E(xc)   XCENC  =      1330.19299635
  PAW double counting   =     53264.85571493   -52160.73265038
  entropy T*S    EENTRO =        -0.06930270
  eigenvalues    EBANDS =     -4358.13823884
  atomic energy  EATOM  =     46306.32569913
  Solvation  Ediel_sol  =         0.00000000
  ---------------------------------------------------
  free energy    TOTEN  =      -936.25857453 eV

  energy without entropy =     -936.18927183  energy(sigma->0) =     -936.22392318


--------------------------------------------------------------------------------------------------------




--------------------------------------- Iteration      1(   8)  ---------------------------------------


    POTLOK:  cpu time    0.0348: real time    0.0352
    SETDIJ:  cpu time    0.0062: real time    0.0062
    EDDIAG:  cpu time    0.7956: real time    0.7976
  RMM-DIIS:  cpu time    2.3774: real time    2.3841
    ORTHCH:  cpu time    0.2400: real time    0.2407
       DOS:  cpu time    0.0011: real time    0.0011
    CHARGE:  cpu time    0.1580: real time    0.1585
    MIXING:  cpu time    0.0016: real time    0.0016
    --------------------------------------------
      LOOP:  cpu time    3.6148: real time    3.6250

 eigenvalue-minimisations  :  3435
 total energy-change (2. order) : 0.1432054E+03  (-0.6410422E+01)
 number of electron     681.0000489 magnetization 
 augmentation part      119.0475445 magnetization 

 DIPCOR: dipole corrections for dipol
 direction  3 min pos   217,
 dipolmoment           0.000000      0.000000      0.085099 electrons x Angstroem
 Tr[quadrupol]    -12742.997373

 energy correction for charged system         0.000000 eV
 dipol+quadrupol energy correction           -0.000306 eV
 added-field ion interaction         -0.584045 eV  (added to PSCEN)


 Broyden mixing:
  rms(total) = 0.12391E+02    rms(broyden)= 0.12390E+02
  rms(prec ) = 0.14365E+02
  weight for this iteration     100.00

 eigenvalues of (default mixing * dielectric matrix)
  average eigenvalue GAMMA=   0.6257
  1.4350  0.2654  0.1768

 Free energy of the ion-electron system (eV)
  ---------------------------------------------------
  alpha Z        PSCENC =      1739.04609511
  Ewald energy   TEWEN  =    225826.72232937
  -Hartree energ DENC   =   -272768.19498240
  -exchange      EXHF   =         0.00000000
  -V(xc)+E(xc)   XCENC  =      1329.38037838
  PAW double counting   =     54539.76336794   -53439.42800377
  entropy T*S    EENTRO =        -0.03686463
  eigenvalues    EBANDS =     -4326.63120247
  atomic energy  EATOM  =     46306.32569913
  Solvation  Ediel_sol  =         0.00000000
  ---------------------------------------------------
  free energy    TOTEN  =      -793.05318334 eV

  energy without entropy =     -793.01631871  energy(sigma->0) =     -793.03475102


--------------------------------------------------------------------------------------------------------




--------------------------------------- Iteration      1(   9)  ---------------------------------------


    POTLOK:  cpu time    0.0359: real time    0.0362
    SETDIJ:  cpu time    0.0061: real time    0.0062
    EDDIAG:  cpu time    0.7956: real time    0.7975
  RMM-DIIS:  cpu time    2.5051: real time    2.5115
    ORTHCH:  cpu time    0.2411: real time    0.2418
       DOS:  cpu time    0.0010: real time    0.0011
    CHARGE:  cpu time    0.1584: real time    0.1588
    MIXING:  cpu time    0.0017: real time    0.0017
    --------------------------------------------
      LOOP:  cpu time    3.7450: real time    3.7547

 eigenvalue-minimisations  :  3619
 total energy-change (2. order) :-0.3429071E+03  (-0.3110161E+02)
 number of electron     681.0000413 magnetization 
 augmentation part      122.8990201 magnetization 

 DIPCOR: dipole corrections for dipol
 direction  3 min pos   217,
 dipolmoment           0.000000      0.000000     -5.621580 electrons x Angstroem
 Tr[quadrupol]    -12705.298427

 energy correction for charged system         0.000000 eV
 dipol+quadrupol energy correction           -1.333284 eV
 added-field ion interaction         38.581583 eV  (added to PSCEN)


 Broyden mixing:
  rms(total) = 0.24056E+02    rms(broyden)= 0.24054E+02
  rms(prec ) = 0.28830E+02
  weight for this iteration     100.00

 eigenvalues of (default mixing * dielectric matrix)
  average eigenvalue GAMMA=   0.5584
  1.6626  0.2509  0.2509  0.0693

 Free energy of the ion-electron system (eV)
  ---------------------------------------------------
  alpha Z        PSCENC =      1776.87874506
  Ewald energy   TEWEN  =    225826.72232937
  -Hartree energ DENC   =   -271799.74953318
  -exchange      EXHF   =         0.00000000
  -V(xc)+E(xc)   XCENC  =      1330.26078284
  PAW double counting   =     57259.12735258   -56170.18865480
  entropy T*S    EENTRO =        -0.03041341
  eigenvalues    EBANDS =     -5665.30662802
  atomic energy  EATOM  =     46306.32569913
  Solvation  Ediel_sol  =         0.00000000
  ---------------------------------------------------
  free energy    TOTEN  =     -1135.96032043 eV

  energy without entropy =    -1135.92990702  energy(sigma->0) =    -1135.94511372


--------------------------------------------------------------------------------------------------------




--------------------------------------- Iteration      1(  10)  ---------------------------------------


    POTLOK:  cpu time    0.0360: real time    0.0363
    SETDIJ:  cpu time    0.0061: real time    0.0062
    EDDIAG:  cpu time    0.7954: real time    0.7981
  RMM-DIIS:  cpu time    2.7732: real time    2.7804
    ORTHCH:  cpu time    0.2433: real time    0.2439
       DOS:  cpu time    0.0012: real time    0.0012
    CHARGE:  cpu time    0.1592: real time    0.1596
    MIXING:  cpu time    0.0021: real time    0.0021
    --------------------------------------------
      LOOP:  cpu time    4.0165: real time    4.0277

 eigenvalue-minimisations  :  4024
 total energy-change (2. order) : 0.3064353E+03  (-0.9371002E+01)
 number of electron     681.0000486 magnetization 
 augmentation part      119.8097351 magnetization 

 DIPCOR: dipole corrections for dipol
 direction  3 min pos   217,
 dipolmoment           0.000000      0.000000     -1.966425 electrons x Angstroem
 Tr[quadrupol]    -12701.675642

 energy correction for charged system         0.000000 eV
 dipol+quadrupol energy correction           -0.163140 eV
 added-field ion interaction         13.495815 eV  (added to PSCEN)


 Broyden mixing:
  rms(total) = 0.19154E+02    rms(broyden)= 0.19153E+02
  rms(prec ) = 0.21431E+02
  weight for this iteration     100.00

 eigenvalues of (default mixing * dielectric matrix)
  average eigenvalue GAMMA=   0.5541
  1.6608  0.3872  0.3109  0.3109  0.1008

 Free energy of the ion-electron system (eV)
  ---------------------------------------------------
  alpha Z        PSCENC =      1752.96312039
  Ewald energy   TEWEN  =    225826.72232937
  -Hartree energ DENC   =   -271714.00479119
  -exchange      EXHF   =         0.00000000
  -V(xc)+E(xc)   XCENC  =      1330.48024311
  PAW double counting   =     59146.42378628   -58061.80304699
  entropy T*S    EENTRO =        -0.07489892
  eigenvalues    EBANDS =     -5416.55741554
  atomic energy  EATOM  =     46306.32569913
  Solvation  Ediel_sol  =         0.00000000
  ---------------------------------------------------
  free energy    TOTEN  =      -829.52497435 eV

  energy without entropy =     -829.45007543  energy(sigma->0) =     -829.48752489


--------------------------------------------------------------------------------------------------------




--------------------------------------- Iteration      1(  11)  ---------------------------------------


    POTLOK:  cpu time    0.0371: real time    0.0382
    SETDIJ:  cpu time    0.0070: real time    0.0072
    EDDIAG:  cpu time    0.7987: real time    0.8009
  RMM-DIIS:  cpu time    2.3158: real time    2.3218
    ORTHCH:  cpu time    0.2401: real time    0.2409
       DOS:  cpu time    0.0011: real time    0.0011
    CHARGE:  cpu time    0.1597: real time    0.1601
    MIXING:  cpu time    0.0018: real time    0.0018
    --------------------------------------------
      LOOP:  cpu time    3.5614: real time    3.5721

 eigenvalue-minimisations  :  3343
 total energy-change (2. order) :-0.1380626E+03  (-0.1533677E+02)
 number of electron     681.0000406 magnetization 
 augmentation part      127.1252028 magnetization 

 DIPCOR: dipole corrections for dipol
 direction  3 min pos   217,
 dipolmoment           0.000000      0.000000     -4.703055 electrons x Angstroem
 Tr[quadrupol]    -12703.584485

 energy correction for charged system         0.000000 eV
 dipol+quadrupol energy correction           -0.933181 eV
 added-field ion interaction         32.277636 eV  (added to PSCEN)


 Broyden mixing:
  rms(total) = 0.20235E+02    rms(broyden)= 0.20234E+02
  rms(prec ) = 0.26029E+02
  weight for this iteration     100.00

 eigenvalues of (default mixing * dielectric matrix)
  average eigenvalue GAMMA=   0.5846
  2.0031  0.3746  0.3746  0.4375  0.2224  0.0951

 Free energy of the ion-electron system (eV)
  ---------------------------------------------------
  alpha Z        PSCENC =      1770.97490010
  Ewald energy   TEWEN  =    225826.72232937
  -Hartree energ DENC   =   -271799.50247930
  -exchange      EXHF   =         0.00000000
  -V(xc)+E(xc)   XCENC  =      1338.06204936
  PAW double counting   =     59663.10825073   -58586.81082583
  entropy T*S    EENTRO =        -0.06332681
  eigenvalues    EBANDS =     -5486.40418567
  atomic energy  EATOM  =     46306.32569913
  Solvation  Ediel_sol  =         0.00000000
  ---------------------------------------------------
  free energy    TOTEN  =      -967.58758892 eV

  energy without entropy =     -967.52426212  energy(sigma->0) =     -967.55592552


--------------------------------------------------------------------------------------------------------




--------------------------------------- Iteration      1(  12)  ---------------------------------------


    POTLOK:  cpu time    0.0353: real time    0.0356
    SETDIJ:  cpu time    0.0062: real time    0.0062
    EDDIAG:  cpu time    0.7963: real time    0.7982
  RMM-DIIS:  cpu time    2.4495: real time    2.4563
    ORTHCH:  cpu time    0.2470: real time    0.2482
       DOS:  cpu time    0.0011: real time    0.0011
    CHARGE:  cpu time    0.1707: real time    0.1724
    MIXING:  cpu time    0.0021: real time    0.0021
    --------------------------------------------
      LOOP:  cpu time    3.7082: real time    3.7202

 eigenvalue-minimisations  :  3560
 total energy-change (2. order) : 0.2788570E+03  (-0.1273572E+02)
 number of electron     681.0000510 magnetization 
 augmentation part      121.1170868 magnetization 

 DIPCOR: dipole corrections for dipol
 direction  3 min pos   217,
 dipolmoment           0.000000      0.000000      0.961084 electrons x Angstroem
 Tr[quadrupol]    -12716.381953

 energy correction for charged system         0.000000 eV
 dipol+quadrupol energy correction           -0.038970 eV
 added-field ion interaction         -6.596033 eV  (added to PSCEN)


 Broyden mixing:
  rms(total) = 0.78403E+01    rms(broyden)= 0.78358E+01
  rms(prec ) = 0.88478E+01
  weight for this iteration     100.00

 eigenvalues of (default mixing * dielectric matrix)
  average eigenvalue GAMMA=   0.5921
  2.2725  0.3749  0.3749  0.4469  0.2904  0.2904  0.0951

 Free energy of the ion-electron system (eV)
  ---------------------------------------------------
  alpha Z        PSCENC =      1732.99544287
  Ewald energy   TEWEN  =    225826.72232937
  -Hartree energ DENC   =   -272142.08666319
  -exchange      EXHF   =         0.00000000
  -V(xc)+E(xc)   XCENC  =      1341.04052936
  PAW double counting   =     61624.98459542   -60554.84227417
  entropy T*S    EENTRO =        -0.07176555
  eigenvalues    EBANDS =     -4823.79847666
  atomic energy  EATOM  =     46306.32569913
  Solvation  Ediel_sol  =         0.00000000
  ---------------------------------------------------
  free energy    TOTEN  =      -688.73058342 eV

  energy without entropy =     -688.65881787  energy(sigma->0) =     -688.69470064


--------------------------------------------------------------------------------------------------------




--------------------------------------- Iteration      1(  13)  ---------------------------------------


    POTLOK:  cpu time    0.0354: real time    0.0369
    SETDIJ:  cpu time    0.0062: real time    0.0062
    EDDIAG:  cpu time    0.7956: real time    0.7976
  RMM-DIIS:  cpu time    2.5220: real time    2.5284
    ORTHCH:  cpu time    0.2405: real time    0.2412
       DOS:  cpu time    0.0011: real time    0.0011
    CHARGE:  cpu time    0.1589: real time    0.1593
    MIXING:  cpu time    0.0021: real time    0.0021
    --------------------------------------------
      LOOP:  cpu time    3.7618: real time    3.7728

 eigenvalue-minimisations  :  3650
 total energy-change (2. order) : 0.3785871E+02  (-0.3902460E+01)
 number of electron     681.0000500 magnetization 
 augmentation part      120.8198991 magnetization 

 DIPCOR: dipole corrections for dipol
 direction  3 min pos   217,
 dipolmoment           0.000000      0.000000     -0.089644 electrons x Angstroem
 Tr[quadrupol]    -12713.103716

 energy correction for charged system         0.000000 eV
 dipol+quadrupol energy correction           -0.000339 eV
 added-field ion interaction          0.615241 eV  (added to PSCEN)


 Broyden mixing:
  rms(total) = 0.60950E+01    rms(broyden)= 0.60943E+01
  rms(prec ) = 0.66953E+01
  weight for this iteration     100.00

 eigenvalues of (default mixing * dielectric matrix)
  average eigenvalue GAMMA=   0.5632
  2.0645  0.4856  0.4856  0.3524  0.3524  0.4013  0.2690  0.0951

 Free energy of the ion-electron system (eV)
  ---------------------------------------------------
  alpha Z        PSCENC =      1740.24534753
  Ewald energy   TEWEN  =    225826.72232937
  -Hartree energ DENC   =   -272045.06209750
  -exchange      EXHF   =         0.00000000
  -V(xc)+E(xc)   XCENC  =      1341.52927815
  PAW double counting   =     62908.45241134   -61845.01921788
  entropy T*S    EENTRO =        -0.08480264
  eigenvalues    EBANDS =     -4883.98081647
  atomic energy  EATOM  =     46306.32569913
  Solvation  Ediel_sol  =         0.00000000
  ---------------------------------------------------
  free energy    TOTEN  =      -650.87186896 eV

  energy without entropy =     -650.78706632  energy(sigma->0) =     -650.82946764


--------------------------------------------------------------------------------------------------------




--------------------------------------- Iteration      1(  14)  ---------------------------------------


    POTLOK:  cpu time    0.0362: real time    0.0364
    SETDIJ:  cpu time    0.0062: real time    0.0062
    EDDIAG:  cpu time    0.7962: real time    0.7986
  RMM-DIIS:  cpu time    2.3836: real time    2.3899
    ORTHCH:  cpu time    0.2405: real time    0.2413
       DOS:  cpu time    0.0011: real time    0.0011
    CHARGE:  cpu time    0.1595: real time    0.1599
    MIXING:  cpu time    0.0022: real time    0.0022
    --------------------------------------------
      LOOP:  cpu time    3.6255: real time    3.6356

 eigenvalue-minimisations  :  3445
 total energy-change (2. order) :-0.7404149E+01  (-0.2146464E+01)
 number of electron     681.0000517 magnetization 
 augmentation part      122.6753770 magnetization 

 DIPCOR: dipole corrections for dipol
 direction  3 min pos   217,
 dipolmoment           0.000000      0.000000      1.105335 electrons x Angstroem
 Tr[quadrupol]    -12701.853117

 energy correction for charged system         0.000000 eV
 dipol+quadrupol energy correction           -0.051546 eV
 added-field ion interaction         -7.586049 eV  (added to PSCEN)


 Broyden mixing:
  rms(total) = 0.66298E+01    rms(broyden)= 0.66279E+01
  rms(prec ) = 0.83528E+01
  weight for this iteration     100.00

 eigenvalues of (default mixing * dielectric matrix)
  average eigenvalue GAMMA=   0.6040
[...]
   0.219E+02 -.321E-12 -.879E+02   -.210E+02 0.178E-13 0.851E+02   -.922E+00 0.000E+00 0.253E+01   -.104E-01 -.311E-12 0.257E+00
   0.101E+02 -.266E-12 -.622E+02   -.103E+02 0.194E-13 0.598E+02   0.179E+00 0.000E+00 0.220E+01   -.349E-01 -.395E-12 0.241E+00
   0.905E+02 0.477E+02 -.148E+04   -.941E+02 -.482E+02 0.147E+04   0.367E+01 0.314E+00 0.680E+01   -.204E-02 0.158E+00 0.180E+00
   -.163E+02 0.378E+02 -.149E+04   0.163E+02 -.395E+02 0.148E+04   0.792E-01 0.158E+01 0.424E+01   -.888E-01 0.888E-01 0.157E+00
   0.398E+02 0.363E+02 -.488E+03   -.395E+02 -.385E+02 0.485E+03   -.310E+00 0.223E+01 0.266E+01   -.906E-02 0.159E-01 0.262E+00
   -.555E+01 0.375E+02 -.491E+03   0.548E+01 -.393E+02 0.490E+03   0.841E-01 0.183E+01 0.359E+00   -.260E-01 0.734E-02 0.273E+00
   0.223E+03 0.149E-11 -.194E+04   -.241E+03 -.125E-13 0.197E+04   0.177E+02 0.000E+00 -.285E+02   0.345E-01 0.164E-12 -.228E-01
   0.248E+01 0.185E-11 -.195E+04   -.653E+00 -.102E-13 0.198E+04   -.184E+01 0.000E+00 -.286E+02   0.193E-01 -.221E-13 0.196E-01
   0.547E+02 -.864E-14 -.995E+03   -.536E+02 0.107E-13 0.100E+04   -.117E+01 0.000E+00 -.848E+01   0.263E-01 -.678E-13 0.327E+00
   0.244E+02 0.176E-12 -.936E+03   -.243E+02 -.707E-14 0.942E+03   -.127E+00 0.000E+00 -.648E+01   -.343E-01 -.949E-14 0.356E+00
   0.905E+02 -.477E+02 -.148E+04   -.941E+02 0.482E+02 0.147E+04   0.367E+01 -.314E+00 0.680E+01   -.204E-02 -.158E+00 0.180E+00
   -.163E+02 -.378E+02 -.149E+04   0.163E+02 0.395E+02 0.148E+04   0.792E-01 -.158E+01 0.424E+01   -.888E-01 -.888E-01 0.157E+00
   0.398E+02 -.363E+02 -.488E+03   -.395E+02 0.385E+02 0.485E+03   -.310E+00 -.223E+01 0.266E+01   -.906E-02 -.159E-01 0.262E+00
   -.555E+01 -.375E+02 -.491E+03   0.548E+01 0.393E+02 0.490E+03   0.841E-01 -.183E+01 0.359E+00   -.260E-01 -.734E-02 0.273E+00
   0.111E+02 -.544E-12 -.203E+04   -.108E+02 -.326E-14 0.206E+04   -.253E+00 0.000E+00 -.334E+02   -.293E-01 0.293E-12 -.102E+00
   0.930E+02 0.123E-12 -.199E+04   -.885E+02 -.274E-14 0.203E+04   -.463E+01 0.000E+00 -.344E+02   0.678E-01 -.771E-13 -.138E+00
   -.170E+02 0.344E-12 0.844E+03   0.170E+02 -.940E-13 -.844E+03   -.389E-01 0.000E+00 -.682E+00   0.153E-01 0.344E-12 0.315E+00
   0.249E+01 -.359E-11 0.824E+03   -.252E+01 -.923E-13 -.824E+03   0.200E-01 0.000E+00 -.776E+00   0.266E-01 0.810E-12 0.326E+00
   -.338E+01 0.381E-12 0.242E+04   0.339E+01 -.893E-13 -.242E+04   -.237E-02 0.000E+00 0.143E+01   0.198E-01 -.120E-12 0.271E-01
   0.457E+00 -.498E-12 0.242E+04   -.500E+00 -.558E-13 -.242E+04   0.137E-01 0.000E+00 0.144E+01   0.136E-01 -.396E-12 0.345E-01
   -.268E+01 -.130E-11 0.257E+04   0.267E+01 0.417E-14 -.256E+04   0.607E-03 0.000E+00 -.263E+01   0.356E-02 -.120E-12 0.262E-01
   -.220E+01 -.253E-11 0.256E+04   0.216E+01 0.718E-13 -.256E+04   0.777E-02 0.000E+00 -.265E+01   0.249E-01 0.591E-12 0.283E-01
   -.105E+02 0.113E-11 0.845E+03   0.105E+02 0.136E-13 -.846E+03   0.132E-01 0.000E+00 0.179E+00   -.465E-02 -.729E-12 0.301E+00
   -.111E+02 0.277E-12 0.825E+03   0.111E+02 -.205E-13 -.826E+03   -.173E-01 0.000E+00 0.871E-01   0.337E-01 -.617E-12 0.305E+00
   -.179E+03 -.272E-11 -.231E+04   0.179E+03 -.666E-14 0.231E+04   -.187E+00 0.000E+00 -.164E+01   -.141E+00 0.133E-11 0.119E+00
   -.581E+02 0.275E-12 -.793E+03   0.576E+02 -.124E-13 0.792E+03   0.451E+00 0.000E+00 0.319E+00   0.497E-03 -.194E-11 0.338E+00
   0.102E+02 -.429E-12 -.826E+03   -.973E+01 0.569E-13 0.825E+03   -.564E+00 0.000E+00 0.497E-01   0.617E-01 -.292E-12 0.358E+00
   -.382E+02 0.590E-13 -.749E+03   0.382E+02 0.461E-13 0.749E+03   -.761E-02 0.000E+00 -.307E+00   -.316E-01 0.158E-11 0.345E+00
   -.876E+02 -.216E-12 -.852E+03   0.876E+02 -.803E-15 0.853E+03   -.714E-01 0.000E+00 -.710E+00   0.629E-01 0.129E-11 0.308E+00
   -.980E+02 -.395E-13 -.230E+04   0.984E+02 -.920E-14 0.230E+04   -.227E+00 0.000E+00 -.185E+01   -.192E+00 0.101E-12 0.217E+00
   -.579E+02 -.529E-12 -.242E+04   0.589E+02 -.256E-13 0.242E+04   -.115E+01 0.000E+00 0.341E+01   0.997E-01 -.481E-12 0.150E+00
   -.442E+01 -.388E-11 0.102E+04   0.426E+01 -.269E-13 -.102E+04   0.215E+00 0.000E+00 -.167E+01   -.401E-02 -.198E-12 0.191E+00
   -.409E+01 0.181E-11 0.101E+04   0.413E+01 -.156E-13 -.101E+04   -.935E-01 0.000E+00 -.168E+01   0.207E-01 -.489E-13 0.177E+00
   -.113E+01 0.492E-12 0.202E+04   0.112E+01 0.228E-14 -.204E+04   -.165E-01 0.000E+00 0.277E+02   -.305E-03 0.606E-12 -.968E-01
   -.822E+00 -.422E-12 0.201E+04   0.803E+00 0.106E-13 -.204E+04   0.583E-04 0.000E+00 0.277E+02   0.156E-01 -.112E-12 -.883E-01
   -.106E+02 0.335E+02 0.560E+03   0.106E+02 -.352E+02 -.560E+03   -.640E-01 0.161E+01 -.267E-01   0.127E-01 0.199E-01 0.203E+00
   0.148E+01 0.349E+02 0.548E+03   -.152E+01 -.366E+02 -.548E+03   0.707E-01 0.162E+01 -.557E-01   0.173E-01 0.202E-01 0.212E+00
   -.232E+01 -.357E+01 0.165E+04   0.228E+01 0.172E+01 -.165E+04   -.431E-01 0.180E+01 -.533E+00   0.198E-01 -.328E-01 0.184E-01
   0.332E+00 -.360E+01 0.165E+04   -.339E+00 0.175E+01 -.165E+04   0.591E-01 0.180E+01 -.517E+00   0.507E-02 -.348E-01 0.236E-01
   -.110E+02 -.277E-12 0.128E+03   0.111E+02 0.110E-13 -.127E+03   -.178E+00 0.000E+00 -.196E+01   -.915E-02 0.131E-11 0.246E+00
   -.194E+02 -.258E-11 0.927E+02   0.195E+02 -.718E-14 -.893E+02   0.212E+00 0.000E+00 -.297E+01   0.284E-01 0.144E-11 0.250E+00
   -.299E+01 0.140E-11 0.119E+04   0.298E+01 0.218E-13 -.119E+04   -.769E-02 0.000E+00 0.299E+00   -.223E-02 -.206E-12 0.123E+00
   -.265E+01 -.165E-11 0.118E+04   0.263E+01 0.510E-14 -.118E+04   0.613E-02 0.000E+00 0.135E+00   0.207E-01 0.175E-13 0.123E+00
   -.106E+02 -.335E+02 0.560E+03   0.106E+02 0.352E+02 -.560E+03   -.640E-01 -.161E+01 -.267E-01   0.127E-01 -.199E-01 0.203E+00
   0.148E+01 -.349E+02 0.548E+03   -.152E+01 0.366E+02 -.548E+03   0.707E-01 -.162E+01 -.557E-01   0.173E-01 -.202E-01 0.212E+00
   -.232E+01 0.357E+01 0.165E+04   0.228E+01 -.172E+01 -.165E+04   -.431E-01 -.180E+01 -.533E+00   0.198E-01 0.328E-01 0.184E-01
   0.332E+00 0.360E+01 0.165E+04   -.339E+00 -.175E+01 -.165E+04   0.591E-01 -.180E+01 -.517E+00   0.507E-02 0.348E-01 0.236E-01
   -.639E+02 0.270E-11 -.111E+04   0.679E+02 0.345E-14 0.111E+04   -.396E+01 0.000E+00 -.300E+01   -.106E+00 0.408E-12 0.188E+00
   -.181E+03 -.694E-12 -.123E+04   0.198E+03 0.109E-13 0.124E+04   -.173E+02 0.000E+00 -.779E+01   0.666E-01 0.910E-12 0.792E-01
   -.129E+02 0.424E-12 -.660E+02   0.117E+02 0.142E-13 0.632E+02   0.118E+01 0.000E+00 0.254E+01   0.114E-01 -.143E-11 0.231E+00
   -.200E+02 0.158E-12 -.941E+02   0.204E+02 -.106E-13 0.928E+02   -.494E+00 0.000E+00 0.100E+01   0.433E-01 -.139E-11 0.237E+00
   -.115E+03 0.307E+02 -.157E+04   0.118E+03 -.318E+02 0.157E+04   -.304E+01 0.961E+00 -.740E+00   -.107E+00 0.726E-01 0.892E-01
   0.474E+02 0.224E+03 -.157E+04   -.487E+02 -.256E+03 0.157E+04   0.111E+01 0.315E+02 0.143E+01   0.210E+00 0.100E+00 0.862E-01
   -.424E+02 0.363E+02 -.505E+03   0.423E+02 -.385E+02 0.502E+03   0.125E+00 0.220E+01 0.220E+01   -.114E-02 -.448E-02 0.208E+00
   0.917E+01 0.823E+01 -.591E+03   -.955E+01 -.937E+01 0.592E+03   0.328E+00 0.116E+01 -.103E+01   0.481E-01 -.209E-01 0.224E+00
   -.331E+02 0.316E-12 -.196E+04   0.313E+02 0.112E-13 0.199E+04   0.202E+01 0.000E+00 -.284E+02   -.141E+00 0.942E-13 0.302E-01
   -.213E+03 -.183E-11 -.195E+04   0.231E+03 0.715E-14 0.197E+04   -.178E+02 0.000E+00 -.276E+02   0.267E-01 0.414E-12 0.241E-01
   -.435E+02 -.881E-14 -.954E+03   0.431E+02 0.109E-13 0.960E+03   0.502E+00 0.000E+00 -.679E+01   -.404E-01 0.461E-12 0.265E+00
   -.334E+02 0.141E-11 -.977E+03   0.325E+02 0.362E-14 0.973E+03   0.823E+00 0.000E+00 0.462E+01   0.539E-01 -.666E-13 0.145E+00
   -.115E+03 -.307E+02 -.157E+04   0.118E+03 0.318E+02 0.157E+04   -.304E+01 -.961E+00 -.740E+00   -.107E+00 -.726E-01 0.892E-01
   0.474E+02 -.224E+03 -.157E+04   -.487E+02 0.256E+03 0.157E+04   0.111E+01 -.315E+02 0.143E+01   0.210E+00 -.100E+00 0.862E-01
   -.424E+02 -.363E+02 -.505E+03   0.423E+02 0.385E+02 0.502E+03   0.125E+00 -.220E+01 0.220E+01   -.114E-02 0.448E-02 0.208E+00
   0.917E+01 -.823E+01 -.591E+03   -.955E+01 0.937E+01 0.592E+03   0.328E+00 -.116E+01 -.103E+01   0.481E-01 0.209E-01 0.224E+00
   -.636E+02 -.259E-11 -.203E+04   0.620E+02 -.968E-14 0.206E+04   0.161E+01 0.000E+00 -.330E+02   -.851E-01 -.228E-12 -.521E-01
 -----------------------------------------------------------------------------------------------
   -.117E+01 0.164E-12 0.120E+03   0.959E-12 0.418E-13 -.105E-10   0.127E+01 0.377E-14 -.136E+03   -.192E+00 0.632E-12 0.163E+02
 
 
 POSITION                                       TOTAL-FORCE (eV/Angst)
 -----------------------------------------------------------------------------------
      1.60107      3.23512      4.85268         0.018184      0.000000     -0.313698
      4.80320      3.23512      4.85268         0.021014      0.000000     -0.349987
      1.60107      0.00000      1.61756        -0.025637      0.000000     -0.926511
      4.80320      0.00000      1.61756         0.018897      0.000000     -0.899420
      0.00000      3.23512      1.61756         0.004689      0.000000      1.585515
      3.20213      3.23512      1.61756         0.000788      0.000000      1.597613
      0.00000      0.00000      4.85268         0.000843      0.000000     -0.087823
      3.20213      0.00000      4.85268         0.025341      0.000000     -0.060762
      1.56313      3.23512     11.39603         0.021297      0.000000     -0.017275
      4.79515      3.23512     11.23664         0.005378      0.000000      0.015140
      1.60160     -0.00000      8.10791        -0.009142      0.000000     -0.005068
      4.80097     -0.00000      8.11034         0.005278      0.000000      0.002221
      0.02636      3.23512      8.11423         0.014936      0.000000      0.000708
      3.20533      3.23512      8.07011        -0.006397      0.000000     -0.001528
     12.71019     -0.00000     11.50776        -0.010388      0.000000      0.020554
      3.17922     -0.00000     11.41892        -0.010135      0.000000      0.019874
      0.00000      3.23512      3.61324         0.025264      0.000000     -0.076368
      3.20213      3.23512      3.61324        -0.036245      0.000000     -0.147791
      0.00000      0.00000      0.37812         0.025690      0.000000      0.806048
      3.20213      0.00000      0.37812         0.012926      0.000000      0.807438
      1.60107      5.23080      4.85268        -0.042081     -0.029800     -0.045977
      4.80320      5.23080      4.85268         0.041734     -0.045406     -0.039824
      1.60107      1.99568      1.61756        -0.047808     -0.071584     -0.674324
      4.80320      1.99568      1.61756         0.053295     -0.056902     -0.682862
      0.00000      3.23512      6.09212        -0.315755      0.000000      0.559322
      3.20213      3.23512      6.09212         0.073215      0.000000     -0.049797
      0.00000      0.00000      2.85700         0.001925      0.000000      0.231714
      3.20213      0.00000      2.85700        -0.002071      0.000000      0.164713
      1.60107      1.23944      4.85268        -0.042081      0.029800     -0.045977
      4.80320      1.23944      4.85268         0.041734      0.045406     -0.039824
      1.60107      4.47456      1.61756        -0.047808      0.071584     -0.674324
      4.80320      4.47456      1.61756         0.053295      0.056902     -0.682862
      0.24236      3.23512     10.02140        -0.003731      0.000000      0.014248
      3.18411      3.23512     10.03033         0.028996      0.000000     -0.018973
      0.00109     -0.00000      6.85735         0.007570      0.000000      0.023144
      3.20499     -0.00000      6.86154        -0.002958      0.000000      0.013870
      1.58660      5.24612     11.25948         0.015752     -0.010867     -0.013706
      4.79424      5.23902     11.23584         0.003291      0.000050     -0.002062
      1.61510      1.99045      8.02855         0.007371     -0.004917     -0.010299
      4.80550      1.99458      8.08097        -0.012111      0.000737     -0.009957
      0.58573      3.23512     12.87706        -0.020565      0.000000     -0.005912
      3.23744      3.23512     12.40717         0.006262      0.000000      0.012961
      0.00066     -0.00000      9.37447        -0.023158      0.000000     -0.015831
      3.19648     -0.00000      9.35755         0.010137      0.000000     -0.003554
      1.58660      1.22412     11.25948         0.015752      0.010867     -0.013706
      4.79424      1.23123     11.23584         0.003291     -0.000050     -0.002062
      1.61510      4.47979      8.02855         0.007371      0.004917     -0.010299
      4.80550      4.47567      8.08097        -0.012111     -0.000737     -0.009957
      3.19306     -0.00000     13.19688        -0.000811      0.000000     -0.049449
      0.14110     -0.00000     13.25047         0.005686      0.000000     -0.042027
      8.00533      3.23512      4.85268        -0.053244      0.000000     -0.302165
     11.20747      3.23512      4.85268         0.015456      0.000000     -0.290974
      8.00533      0.00000      1.61756         0.028640      0.000000     -0.932509
     11.20747      0.00000      1.61756        -0.014873      0.000000     -0.917142
      6.40427      3.23512      1.61756         0.003469      0.000000      1.595226
      9.60640      3.23512      1.61756        -0.002097      0.000000      1.593136
      6.40427      0.00000      4.85268        -0.011163      0.000000     -0.179199
      9.60640      0.00000      4.85268        -0.009625      0.000000     -0.074702
      8.03187      3.23512     11.41908         0.004200      0.000000      0.028756
      7.98758     -0.00000      8.08799        -0.003632      0.000000      0.006962
     11.23070     -0.00000      8.10013        -0.012022      0.000000     -0.005017
      6.40020      3.23512      8.07265        -0.015780      0.000000     -0.018939
      9.58159      3.23512      8.12083        -0.003352      0.000000      0.006442
      6.40535     -0.00000     11.43925        -0.014060      0.000000     -0.016862
      9.66181     -0.00000     11.24013         0.006031      0.000000      0.017419
      6.40427      3.23512      3.61324         0.050232      0.000000     -0.142373
      9.60640      3.23512      3.61324        -0.033716      0.000000     -0.075410
      6.40427      0.00000      0.37812        -0.026282      0.000000      0.813942
      9.60640      0.00000      0.37812        -0.002761      0.000000      0.793785
      8.00533      5.23080      4.85268        -0.048106     -0.021953     -0.042109
     11.20747      5.23080      4.85268         0.049861     -0.015227     -0.023716
      8.00533      1.99568      1.61756        -0.059591     -0.079924     -0.676563
     11.20747      1.99568      1.61756         0.057721     -0.088411     -0.682763
      6.40427      3.23512      6.09212        -0.054976      0.000000      0.012982
      9.60640      3.23512      6.09212         0.329696      0.000000      0.632154
      6.40427      0.00000      2.85700        -0.014660      0.000000      0.211868
      9.60640      0.00000      2.85700         0.005109      0.000000      0.175696
      8.00533      1.23944      4.85268        -0.048106      0.021953     -0.042109
     11.20747      1.23944      4.85268         0.049861      0.015227     -0.023716
      8.00533      4.47456      1.61756        -0.059591      0.079924     -0.676563
     11.20747      4.47456      1.61756         0.057721      0.088411     -0.682763
      6.41679      3.23512     10.03455        -0.023782      0.000000     -0.007069
      9.36585      3.23512     10.03764         0.000586      0.000000     -0.001640
      6.39740     -0.00000      6.85406         0.016728      0.000000      0.007040
      9.60775     -0.00000      6.85289         0.018992      0.000000      0.003598
      8.01260      5.25812     11.36525        -0.004955     -0.001788      0.016468
     11.20713      5.27646     11.33946         0.004327      0.011818      0.005524
      7.98744      1.99366      8.03854         0.002278     -0.000054      0.009626
     11.21592      2.00143      8.12475        -0.008565      0.000914     -0.004667
      6.34690      3.23512     12.41809        -0.008913      0.000000      0.016031
      9.02714      3.23512     12.89473        -0.000860      0.000000      0.011145
      6.41350     -0.00000      9.36354         0.003384      0.000000     -0.005052
      9.61731     -0.00000      9.30548        -0.029717      0.000000     -0.002260
      8.01260      1.21212     11.36525        -0.004955      0.001788      0.016468
     11.20713      1.19379     11.33946         0.004327     -0.011818      0.005524
      7.98744      4.47658      8.03854         0.002278      0.000054      0.009626
     11.21592      4.46881      8.12475        -0.008565     -0.000914     -0.004667
      6.31360     -0.00000     13.21809        -0.039151      0.000000     -0.003752
 -----------------------------------------------------------------------------------
    total drift:                               -0.084330      0.000000     -0.081963


--------------------------------------------------------------------------------------------------------



  FREE ENERGIE OF THE ION-ELECTRON SYSTEM (eV)
  ---------------------------------------------------
  free  energy   TOTEN  =      -621.26866968 eV

  energy  without entropy=     -621.17815080  energy(sigma->0) =     -621.22341024
 
 d Force = 0.5374912E-03[ 0.285E-03, 0.790E-03]  d Energy = 0.6327930E-03-0.953E-04
 d Force =-0.3570573E+01[-0.357E+01,-0.357E+01]  d Ewald  =-0.3570575E+01 0.207E-05


--------------------------------------------------------------------------------------------------------


    POTLOK:  cpu time    0.0423: real time    0.0425


--------------------------------------------------------------------------------------------------------


 stress matrix after NEB project (eV)
    -18.64768      0.00000      0.35201
      0.00000     -3.22847      0.00000
      0.35201      0.00000     -6.42487
  FORCES: max atom, RMS     0.049456    0.014515
  FORCE total and by dimension    0.143692    0.049449
  Stress total and by dimension   19.992140   18.647679
 Conjugate gradient step on ions:
 trial-energy change:   -0.000633  1 .order   -0.000537   -0.000790   -0.000285
  (g-gl).g = 0.182E-02      g.g   = 0.194E-02  gl.gl    = 0.260E-02
 g(Force)  = 0.194E-02   g(Stress)= 0.000E+00 ortho     = 0.108E-03
 gamma     =   0.70053
 trial     =   0.39261
 opt step  =   0.48480  (harmonic =   0.61346) maximal distance =0.00156824
 next E    =  -621.268704   (d E  =  -0.00067)


--------------------------------------------------------------------------------------------------------


  
 reached required accuracy - stopping structural energy minimisation
     LOOP+:  cpu time   26.2376: real time   26.3723
    4ORBIT:  cpu time    0.0000: real time    0.0000

 total amount of memory used by VASP MPI-rank0    83676. kBytes
=======================================================================

   base      :      30000. kBytes
   nonlr-proj:       5847. kBytes
   fftplans  :       3841. kBytes
   grid      :       7459. kBytes
   one-center:        155. kBytes
   wavefun   :      36374. kBytes
 
  
  
 General timing and accounting informations for this job:
 ========================================================
  
                  Total CPU time used (sec):     1385.311
                            User time (sec):     1358.295
                          System time (sec):       27.016
                         Elapsed time (sec):     1389.807
  
                   Maximum memory used (kb):      148708.
                   Average memory used (kb):           0.
  
                          Minor page faults:       172984
                          Major page faults:           47
                 Voluntary context switches:         2862
