<?xml version="1.0" encoding="ISO-8859-1"?>
<modeling>
 <generator>
  <i name="program" type="string">vasp </i>
  <i name="version" type="string">5.4.4.18Apr17-6-g9f103f2a35  </i>
  <i name="subversion" type="string">(build Feb 25 2019 10:51:38) complex            parallel </i>
  <i name="platform" type="string">LinuxIFC </i>
  <i name="date" type="string">2023 03 14 </i>
  <i name="time" type="string">11:32:46 </i>
 </generator>
 <incar>
  <i type="string" name="PREC">normal</i>
  <i type="string" name="ALGO"> Fast</i>
  <i type="int" name="ISPIN">     1</i>
  <i type="int" name="ICHARG">     2</i>
  <i type="int" name="NELM">    60</i>
  <i type="int" name="NELMIN">     4</i>
  <i type="int" name="IBRION">     2</i>
  <i name="EDIFF">      0.00001000</i>
  <i name="EDIFFG">     -0.05000000</i>
  <i type="int" name="NSW">   500</i>
  <i type="int" name="ISIF">     2</i>
  <i name="ENCUT">    500.00000000</i>
  <i type="string" name="LREAL"> Auto</i>
  <i type="int" name="ISMEAR">     0</i>
  <i name="SIGMA">      0.05000000</i>
  <i type="logical" name="LWAVE"> F  </i>
  <i type="logical" name="LCHARG"> F  </i>
  <v type="int" name="KPOINT_BSE">    -1     0     0     0</v>
  <i type="int" name="NELM">    60</i>
  <i type="string" name="GGA"> Rp</i>
  <i type="logical" name="LDIPOL"> T  </i>
  <i type="int" name="IDIPOL">     3</i>
  <v name="DIPOL">      0.37555500      0.26665008      0.25114130</v>
 </incar>
 <structure name="primitive_cell" >
  <crystal>
   <varray name="basis" >
    <v>      12.80853200       0.00000000       0.00000000 </v>
    <v>       0.00000000       6.47024300       0.00000000 </v>
    <v>       0.00000000       0.00000000      25.88097200 </v>
   </varray>
   <i name="volume">   2144.86781344 </i>
   <varray name="rec_basis" >
    <v>       0.07807296       0.00000000       0.00000000 </v>
    <v>       0.00000000       0.15455370       0.00000000 </v>
    <v>       0.00000000       0.00000000       0.03863843 </v>
   </varray>
  </crystal>
  <varray name="positions" >
   <v>       0.12500000      -0.50000000       0.18750000 </v>
   <v>       0.12500000      -0.19156000       0.18750000 </v>
   <v>       0.12500000       0.19156000       0.18750000 </v>
   <v>       0.00000000      -0.50000000       0.13961000 </v>
   <v>       0.25000000      -0.50000000       0.13961000 </v>
   <v>       0.00000000      -0.50000000       0.23539000 </v>
   <v>       0.25000000      -0.50000000       0.23539000 </v>
   <v>       0.37500000      -0.50000000       0.18750000 </v>
   <v>      -0.12500000      -0.50000000       0.18750000 </v>
   <v>       0.12614899       0.30747371       0.31021570 </v>
   <v>       0.12614899      -0.30747371       0.31021570 </v>
   <v>       0.12500000       0.30844000       0.06250000 </v>
   <v>       0.12500000      -0.30844000       0.06250000 </v>
   <v>       0.25042695      -0.50000000       0.31181039 </v>
   <v>       0.00000000      -0.50000000       0.06250000 </v>
   <v>       0.25000000      -0.50000000       0.06250000 </v>
   <v>       0.00000000       0.00000000       0.18750000 </v>
   <v>       0.25000000       0.00000000       0.18750000 </v>
   <v>       0.00217389      -0.50000000       0.31392298 </v>
   <v>       0.37500000      -0.19156000       0.18750000 </v>
   <v>       0.37500000       0.19156000       0.18750000 </v>
   <v>      -0.12500000      -0.19156000       0.18750000 </v>
   <v>      -0.12500000       0.19156000       0.18750000 </v>
   <v>       0.00000000       0.00000000       0.11039000 </v>
   <v>       0.25000000       0.00000000       0.11039000 </v>
   <v>       0.00018119       0.00000000       0.26478826 </v>
   <v>       0.24998285       0.00000000       0.26477872 </v>
   <v>       0.12500000       0.00000000       0.06250000 </v>
   <v>       0.12512816       0.00000000       0.31279259 </v>
   <v>       0.37509423       0.30778101       0.31212274 </v>
   <v>       0.37509423      -0.30778101       0.31212274 </v>
   <v>       0.37500000       0.30844000       0.06250000 </v>
   <v>       0.37500000      -0.30844000       0.06250000 </v>
   <v>      -0.12500000       0.30844000       0.06250000 </v>
   <v>      -0.12500000      -0.30844000       0.06250000 </v>
   <v>      -0.12426458       0.30929815       0.31392214 </v>
   <v>      -0.12426458      -0.30929815       0.31392214 </v>
   <v>      -0.50000000      -0.50000000       0.13961000 </v>
   <v>      -0.25000000      -0.50000000       0.13961000 </v>
   <v>      -0.50000000      -0.50000000       0.23539000 </v>
   <v>      -0.25000000      -0.50000000       0.23539000 </v>
   <v>       0.01730553      -0.50000000       0.38745324 </v>
   <v>       0.24910958      -0.50000000       0.38783744 </v>
   <v>      -0.12301032       0.00000000       0.31249620 </v>
   <v>       0.37500000       0.00000000       0.06250000 </v>
   <v>      -0.12500000       0.00000000       0.06250000 </v>
   <v>       0.37491034       0.00000000       0.31281151 </v>
   <v>       0.00000000       0.00000000       0.01461000 </v>
   <v>       0.25000000       0.00000000       0.01461000 </v>
   <v>       0.24969468       0.00000000       0.36055562 </v>
   <v>       0.00014043       0.00000000       0.36142272 </v>
   <v>       0.49955909      -0.50000000       0.31204715 </v>
   <v>      -0.50000000      -0.50000000       0.06250000 </v>
   <v>      -0.25000000      -0.50000000       0.06250000 </v>
   <v>      -0.50000000       0.00000000       0.18750000 </v>
   <v>      -0.25000000       0.00000000       0.18750000 </v>
   <v>      -0.25181067      -0.50000000       0.31412570 </v>
   <v>      -0.24945108       0.00000000       0.26451358 </v>
   <v>       0.49986752       0.00000000       0.26461170 </v>
   <v>      -0.50000000       0.00000000       0.11039000 </v>
   <v>      -0.25000000       0.00000000       0.11039000 </v>
   <v>      -0.37500000      -0.50000000       0.18750000 </v>
   <v>       0.12211537      -0.50000000       0.44067068 </v>
   <v>      -0.37500000      -0.19156000       0.18750000 </v>
   <v>      -0.37500000       0.19156000       0.18750000 </v>
   <v>       0.12362848      -0.18861965       0.43597922 </v>
   <v>       0.12362848       0.18861965       0.43597922 </v>
   <v>      -0.49902274      -0.50000000       0.38817780 </v>
   <v>       0.37475107      -0.50000000       0.43490483 </v>
   <v>      -0.26654234      -0.50000000       0.38806442 </v>
   <v>      -0.37625867       0.30786954       0.31069406 </v>
   <v>      -0.37625867      -0.30786954       0.31069406 </v>
   <v>      -0.37500000       0.30844000       0.06250000 </v>
   <v>      -0.37500000      -0.30844000       0.06250000 </v>
   <v>      -0.24909426       0.00000000       0.35889142 </v>
   <v>      -0.50000000       0.00000000       0.01461000 </v>
   <v>      -0.25000000       0.00000000       0.01461000 </v>
   <v>      -0.49940033       0.00000000       0.36076831 </v>
   <v>       0.37470215      -0.19074205       0.43495848 </v>
   <v>       0.37470215       0.19074205       0.43495848 </v>
   <v>       0.24892771       0.00000000       0.44126346 </v>
   <v>      -0.12535843      -0.18535411       0.43787123 </v>
   <v>      -0.12535843       0.18535411       0.43787123 </v>
   <v>      -0.00688087       0.00000000       0.44362833 </v>
   <v>       0.25203467      -0.50000000       0.48012919 </v>
   <v>      -0.37618389       0.00000000       0.31207810 </v>
   <v>      -0.37500000       0.00000000       0.06250000 </v>
   <v>       0.04162200      -0.50000000       0.49688556 </v>
   <v>      -0.24512383       0.00000000       0.43333706 </v>
   <v>      -0.49978051       0.00000000       0.44192508 </v>
   <v>       0.49677300      -0.50000000       0.48045356 </v>
   <v>       0.24931084       0.00000000      -0.48951137 </v>
   <v>       0.00412603       0.00000000      -0.48810218 </v>
   <v>      -0.37221712      -0.50000000       0.44150502 </v>
   <v>      -0.37357029      -0.18807431       0.43879064 </v>
   <v>      -0.37357029       0.18807431       0.43879064 </v>
   <v>      -0.29178455      -0.50000000       0.49770942 </v>
   <v>       0.49695417       0.00000000      -0.48872571 </v>
  </varray>
 </structure>
 <varray name="primitive_index" >
  <v type="int" >        1 </v>
  <v type="int" >       21 </v>
  <v type="int" >       29 </v>
  <v type="int" >       17 </v>
  <v type="int" >       18 </v>
  <v type="int" >       25 </v>
  <v type="int" >       26 </v>
  <v type="int" >        2 </v>
  <v type="int" >       52 </v>
  <v type="int" >       39 </v>
  <v type="int" >       47 </v>
  <v type="int" >       23 </v>
  <v type="int" >       31 </v>
  <v type="int" >       14 </v>
  <v type="int" >        5 </v>
  <v type="int" >        6 </v>
  <v type="int" >        7 </v>
  <v type="int" >        8 </v>
  <v type="int" >       13 </v>
  <v type="int" >       22 </v>
  <v type="int" >       30 </v>
  <v type="int" >       71 </v>
  <v type="int" >       79 </v>
  <v type="int" >       27 </v>
  <v type="int" >       28 </v>
  <v type="int" >       35 </v>
  <v type="int" >       36 </v>
  <v type="int" >        3 </v>
  <v type="int" >       11 </v>
  <v type="int" >       40 </v>
  <v type="int" >       48 </v>
  <v type="int" >       24 </v>
  <v type="int" >       32 </v>
  <v type="int" >       73 </v>
  <v type="int" >       81 </v>
  <v type="int" >       89 </v>
  <v type="int" >       97 </v>
  <v type="int" >       66 </v>
  <v type="int" >       67 </v>
  <v type="int" >       74 </v>
  <v type="int" >       75 </v>
  <v type="int" >       33 </v>
  <v type="int" >       34 </v>
  <v type="int" >       61 </v>
  <v type="int" >        4 </v>
  <v type="int" >       54 </v>
  <v type="int" >       12 </v>
  <v type="int" >       19 </v>
  <v type="int" >       20 </v>
  <v type="int" >       44 </v>
  <v type="int" >       43 </v>
  <v type="int" >       62 </v>
  <v type="int" >       55 </v>
  <v type="int" >       56 </v>
  <v type="int" >       57 </v>
  <v type="int" >       58 </v>
  <v type="int" >       63 </v>
  <v type="int" >       85 </v>
  <v type="int" >       84 </v>
  <v type="int" >       76 </v>
  <v type="int" >       77 </v>
  <v type="int" >       51 </v>
  <v type="int" >        9 </v>
  <v type="int" >       70 </v>
  <v type="int" >       78 </v>
  <v type="int" >       37 </v>
  <v type="int" >       45 </v>
  <v type="int" >       82 </v>
  <v type="int" >       10 </v>
  <v type="int" >       83 </v>
  <v type="int" >       88 </v>
  <v type="int" >       96 </v>
  <v type="int" >       72 </v>
  <v type="int" >       80 </v>
  <v type="int" >       93 </v>
  <v type="int" >       68 </v>
  <v type="int" >       69 </v>
  <v type="int" >       92 </v>
  <v type="int" >       38 </v>
  <v type="int" >       46 </v>
  <v type="int" >       16 </v>
  <v type="int" >       87 </v>
  <v type="int" >       95 </v>
  <v type="int" >       15 </v>
  <v type="int" >       42 </v>
  <v type="int" >       60 </v>
  <v type="int" >       53 </v>
  <v type="int" >       41 </v>
  <v type="int" >       65 </v>
  <v type="int" >       64 </v>
  <v type="int" >       90 </v>
  <v type="int" >       49 </v>
  <v type="int" >       50 </v>
  <v type="int" >       59 </v>
  <v type="int" >       86 </v>
  <v type="int" >       94 </v>
  <v type="int" >       91 </v>
  <v type="int" >       98 </v>
 </varray>
 <kpoints>
  <generation param="Gamma">
   <v type="int" name="divisions">       3        3        1 </v>
   <v name="usershift">      0.00000000       0.00000000       0.00000000 </v>
   <v name="genvec1">      0.33333333       0.00000000       0.00000000 </v>
   <v name="genvec2">      0.00000000       0.33333333       0.00000000 </v>
   <v name="genvec3">      0.00000000       0.00000000       1.00000000 </v>
   <v name="shift">      0.00000000       0.00000000       0.00000000 </v>
  </generation>
  <varray name="kpointlist" >
   <v>       0.00000000       0.00000000       0.00000000 </v>
   <v>       0.33333333       0.00000000       0.00000000 </v>
   <v>       0.00000000       0.33333333       0.00000000 </v>
   <v>       0.33333333       0.33333333       0.00000000 </v>
  </varray>
  <varray name="weights" >
   <v>       0.11111111 </v>
   <v>       0.22222222 </v>
   <v>       0.22222222 </v>
   <v>       0.44444444 </v>
  </varray>
 </kpoints>
 <parameters>
  <separator name="general" >
   <i type="string" name="SYSTEM">unknown system</i>
   <i type="logical" name="LCOMPAT"> F  </i>
  </separator>
  <separator name="electronic" >
   <i type="string" name="PREC">normal</i>
   <i name="ENMAX">    500.00000000</i>
   <i name="ENAUG">    605.39200000</i>
   <i name="EDIFF">      0.00001000</i>
   <i type="int" name="IALGO">    68</i>
   <i type="int" name="IWAVPR">    11</i>
   <i type="int" name="NBANDS">   408</i>
   <i name="NELECT">    681.00000000</i>
   <i type="int" name="TURBO">     0</i>
   <i type="int" name="IRESTART">     0</i>
   <i type="int" name="NREBOOT">     0</i>
   <i type="int" name="NMIN">     0</i>
   <i name="EREF">      0.00000000</i>
   <separator name="electronic smearing" >
    <i type="int" name="ISMEAR">     0</i>
    <i name="SIGMA">      0.05000000</i>
    <i name="KSPACING">      0.50000000</i>
    <i type="logical" name="KGAMMA"> T  </i>
   </separator>
   <separator name="electronic projectors" >
    <i type="logical" name="LREAL"> T  </i>
    <v name="ROPT">     -0.00050000     -0.00050000     -0.00050000     -0.00050000</v>
    <i type="int" name="LMAXPAW">  -100</i>
    <i type="int" name="LMAXMIX">     2</i>
    <i type="logical" name="NLSPLINE"> F  </i>
   </separator>
   <separator name="electronic startup" >
    <i type="int" name="ISTART">     0</i>
    <i type="int" name="ICHARG">     2</i>
    <i type="int" name="INIWAV">     1</i>
   </separator>
   <separator name="electronic spin" >
    <i type="int" name="ISPIN">     1</i>
    <i type="logical" name="LNONCOLLINEAR"> F  </i>
    <v name="MAGMOM">      1.00000000      1.00000000      1.00000000      1.00000000      1.00000000      1.00000000      1.00000000      1.00000000      1.00000000      1.00000000      1.00000000      1.00000000      1.00000000      1.00000000      1.00000000      1.00000000      1.00000000      1.00000000      1.00000000      1.00000000
      1.00000000      1.00000000      1.00000000      1.00000000      1.00000000      1.00000000      1.00000000      1.00000000      1.00000000      1.00000000      1.00000000      1.00000000      1.00000000      1.00000000      1.00000000      1.00000000      1.00000000      1.00000000      1.00000000      1.00000000
      1.00000000      1.00000000      1.00000000      1.00000000      1.00000000      1.00000000      1.00000000      1.00000000      1.00000000      1.00000000      1.00000000      1.00000000      1.00000000      1.00000000      1.00000000      1.00000000      1.00000000      1.00000000      1.00000000      1.00000000
      1.00000000      1.00000000      1.00000000      1.00000000      1.00000000      1.00000000      1.00000000      1.00000000      1.00000000      1.00000000      1.00000000      1.00000000      1.00000000      1.00000000      1.00000000      1.00000000      1.00000000      1.00000000      1.00000000      1.00000000
      1.00000000      1.00000000      1.00000000      1.00000000      1.00000000      1.00000000      1.00000000      1.00000000      1.00000000      1.00000000      1.00000000      1.00000000      1.00000000      1.00000000      1.00000000      1.00000000      1.00000000      1.00000000</v>
    <i name="NUPDOWN">     -1.00000000</i>
    <i type="logical" name="LSORBIT"> F  </i>
    <v name="SAXIS">      0.00000000      0.00000000      1.00000000</v>
    <i type="logical" name="LSPIRAL"> F  </i>
    <v name="QSPIRAL">      0.00000000      0.00000000      0.00000000</v>
    <i type="logical" name="LZEROZ"> F  </i>
   </separator>
   <separator name="electronic exchange-correlation" >
    <i type="logical" name="LASPH"> F  </i>
    <i type="logical" name="LMETAGGA"> F  </i>
   </separator>
   <separator name="electronic convergence" >
    <i type="int" name="NELM">    60</i>
    <i type="int" name="NELMDL">    -5</i>
    <i type="int" name="NELMIN">     4</i>
    <i name="ENINI">    500.00000000</i>
    <separator name="electronic convergence detail" >
     <i type="logical" name="LDIAG"> T  </i>
     <i type="logical" name="LSUBROT"> F  </i>
     <i name="WEIMIN">      0.00100000</i>
     <i name="EBREAK">      0.00000001</i>
     <i name="DEPER">      0.30000000</i>
     <i type="int" name="NRMM">     4</i>
     <i name="TIME">      0.40000000</i>
    </separator>
   </separator>
   <separator name="electronic mixer" >
    <i name="AMIX">      0.40000000</i>
    <i name="BMIX">      1.00000000</i>
    <i name="AMIN">      0.10000000</i>
    <i name="AMIX_MAG">      1.60000000</i>
    <i name="BMIX_MAG">      1.00000000</i>
    <separator name="electronic mixer details" >
     <i type="int" name="IMIX">     4</i>
     <i type="logical" name="MIXFIRST"> F  </i>
     <i type="int" name="MAXMIX">   -45</i>
     <i name="WC">    100.00000000</i>
     <i type="int" name="INIMIX">     1</i>
     <i type="int" name="MIXPRE">     1</i>
     <i type="int" name="MREMOVE">     5</i>
    </separator>
   </separator>
   <separator name="electronic dipolcorrection" >
    <i type="logical" name="LDIPOL"> T  </i>
    <i type="logical" name="LMONO"> F  </i>
    <i type="int" name="IDIPOL">     3</i>
    <i name="EPSILON">      1.00000000</i>
    <v name="DIPOL">      0.37555500      0.26665008      0.25114130</v>
    <i name="EFIELD">      0.00000000</i>
   </separator>
  </separator>
  <separator name="grids" >
   <i type="int" name="NGX">    70</i>
   <i type="int" name="NGY">    36</i>
   <i type="int" name="NGZ">   144</i>
   <i type="int" name="NGXF">   140</i>
   <i type="int" name="NGYF">    72</i>
   <i type="int" name="NGZF">   288</i>
   <i type="logical" name="ADDGRID"> F  </i>
  </separator>
  <separator name="ionic" >
   <i type="int" name="NSW">   500</i>
   <i type="int" name="IBRION">     2</i>
   <i type="int" name="MDALGO">     0</i>
   <i type="int" name="ISIF">     2</i>
   <i name="PSTRESS">      0.00000000</i>
   <i name="EDIFFG">     -0.05000000</i>
   <i type="int" name="NFREE">     1</i>
   <i name="POTIM">      0.50000000</i>
   <i name="SMASS">     -3.00000000</i>
   <i name="SCALEE">      1.00000000</i>
  </separator>
  <separator name="ionic md" >
   <i name="TEBEG">      0.00010000</i>
   <i name="TEEND">      0.00010000</i>
   <i type="int" name="NBLOCK">     1</i>
   <i type="int" name="KBLOCK">   500</i>
   <i type="int" name="NPACO">   256</i>
   <i name="APACO">     16.00000000</i>
  </separator>
  <separator name="symmetry" >
   <i type="int" name="ISYM">     2</i>
   <i name="SYMPREC">      0.00001000</i>
  </separator>
  <separator name="dos" >
   <i type="int" name="LORBIT">     0</i>
   <v name="RWIGS">     -1.00000000     -1.00000000     -1.00000000     -1.00000000</v>
   <i type="int" name="NEDOS">   301</i>
   <i name="EMIN">     10.00000000</i>
   <i name="EMAX">    -10.00000000</i>
   <i name="EFERMI">      0.00000000</i>
  </separator>
  <separator name="writing" >
   <i type="int" name="NWRITE">     2</i>
   <i type="logical" name="LWAVE"> F  </i>
   <i type="logical" name="LDOWNSAMPLE"> F  </i>
   <i type="logical" name="LCHARG"> F  </i>
   <i type="logical" name="LPARD"> F  </i>
   <i type="logical" name="LVTOT"> F  </i>
   <i type="logical" name="LVHAR"> F  </i>
   <i type="logical" name="LELF"> F  </i>
   <i type="logical" name="LOPTICS"> F  </i>
   <v name="STM">      0.00000000      0.00000000      0.00000000      0.00000000      0.00000000      0.00000000      0.00000000</v>
  </separator>
  <separator name="performance" >
   <i type="int" name="NPAR">     4</i>
   <i type="int" name="NSIM">     4</i>
   <i type="int" name="NBLK">    -1</i>
   <i type="logical" name="LPLANE"> T  </i>
   <i type="logical" name="LSCALAPACK"> T  </i>
   <i type="logical" name="LSCAAWARE"> F  </i>
   <i type="logical" name="LSCALU"> F  </i>
   <i type="logical" name="LASYNC"> F  </i>
   <i type="logical" name="LORBITALREAL"> F  </i>
  </separator>
  <separator name="miscellaneous" >
   <i type="int" name="IDIOT">     3</i>
   <i type="int" name="ISPECIAL">     0</i>
   <i type="logical" name="LMUSIC"> F  </i>
   <v name="POMASS">    192.22000000     16.00000000    192.22000000     16.00000000</v>
   <v name="DARWINR">      0.00000000      0.00000000      0.00000000      0.00000000</v>
   <v name="DARWINV">      1.00000000      1.00000000      1.00000000      1.00000000</v>
   <i type="logical" name="LCORR"> T  </i>
  </separator>
  <i type="logical" name="GGA_COMPAT"> T  </i>
  <i type="logical" name="LBERRY"> F  </i>
  <i type="int" name="ICORELEVEL">     0</i>
  <i type="logical" name="LDAU"> F  </i>
  <i type="int" name="I_CONSTRAINED_M">     0</i>
  <separator name="electronic exchange-correlation" >
   <i type="string" name="GGA">RP</i>
   <i type="int" name="VOSKOWN">     0</i>
   <i type="logical" name="LHFCALC"> F  </i>
   <i type="string" name="PRECFOCK"></i>
   <i type="logical" name="LSYMGRAD"> F  </i>
   <i type="logical" name="LHFONE"> F  </i>
   <i type="logical" name="LRHFCALC"> F  </i>
   <i type="logical" name="LTHOMAS"> F  </i>
   <i type="logical" name="LMODELHF"> F  </i>
   <i name="ENCUT4O">     -1.00000000</i>
   <i type="int" name="EXXOEP">     0</i>
   <i type="int" name="FOURORBIT">     0</i>
   <i name="AEXX">      0.00000000</i>
   <i name="HFALPHA">      0.00000000</i>
   <i name="MCALPHA">      0.00000000</i>
   <i name="ALDAX">      1.00000000</i>
   <i name="AGGAX">      1.00000000</i>
   <i name="ALDAC">      1.00000000</i>
   <i name="AGGAC">      1.00000000</i>
   <i type="int" name="NKREDX">     1</i>
   <i type="int" name="NKREDY">     1</i>
   <i type="int" name="NKREDZ">     1</i>
   <i type="logical" name="SHIFTRED"> F  </i>
   <i type="logical" name="ODDONLY"> F  </i>
   <i type="logical" name="EVENONLY"> F  </i>
   <i type="int" name="LMAXFOCK">     0</i>
   <i type="int" name="NMAXFOCKAE">     0</i>
   <i type="logical" name="LFOCKAEDFT"> F  </i>
   <i name="HFSCREEN">      0.00000000</i>
   <i name="HFSCREENC">      0.00000000</i>
   <i type="int" name="NBANDSGWLOW">     0</i>
  </separator>
  <separator name="vdW DFT" >
   <i type="logical" name="LUSE_VDW"> F  </i>
   <i name="Zab_VDW">     -0.84910000</i>
   <i name="PARAM1">      0.12340000</i>
   <i name="PARAM2">      1.00000000</i>
   <i name="PARAM3">      0.00000000</i>
  </separator>
  <separator name="model GW" >
   <i type="int" name="MODEL_GW">     0</i>
   <i name="MODEL_EPS0">     13.13184376</i>
   <i name="MODEL_ALPHA">      1.00000000</i>
  </separator>
  <separator name="linear response parameters" >
   <i type="logical" name="LEPSILON"> F  </i>
   <i type="logical" name="LRPA"> F  </i>
   <i type="logical" name="LNABLA"> F  </i>
   <i type="logical" name="LVEL"> F  </i>
   <i type="int" name="KINTER">     0</i>
   <i name="CSHIFT">      0.10000000</i>
   <i name="OMEGAMAX">     -1.00000000</i>
   <i name="DEG_THRESHOLD">      0.00200000</i>
   <i name="RTIME">     -0.10000000</i>
   <i name="WPLASMAI">      0.00000000</i>
   <v name="DFIELD">      0.00000000      0.00000000      0.00000000</v>
   <v name="WPLASMA">      0.00000000      0.00000000      0.00000000      0.00000000      0.00000000      0.00000000      0.00000000      0.00000000      0.00000000</v>
  </separator>
  <separator name="orbital magnetization" >
   <i type="logical" name="NUCIND"> F  </i>
   <v name="MAGPOS">      0.00000000      0.00000000      0.00000000</v>
   <i type="logical" name="LNICSALL"> T  </i>
   <i type="logical" name="ORBITALMAG"> F  </i>
   <i type="logical" name="LMAGBLOCH"> F  </i>
   <i type="logical" name="LCHIMAG"> F  </i>
   <i type="logical" name="LGAUGE"> T  </i>
   <i type="int" name="MAGATOM">     0</i>
   <v name="MAGDIPOL">      0.00000000      0.00000000      0.00000000</v>
   <v name="AVECCONST">      0.00000000      0.00000000      0.00000000</v>
  </separator>
  <separator name="response functions" >
   <i type="logical" name="LADDER"> F  </i>
   <i type="logical" name="LRPAFORCE"> F  </i>
   <i type="logical" name="LFXC"> F  </i>
   <i type="logical" name="LHARTREE"> T  </i>
   <i type="int" name="IBSE">     0</i>
   <v type="int" name="KPOINT">    -1     0     0     0</v>
   <i type="logical" name="LTCTE"> F  </i>
   <i type="logical" name="LTETE"> F  </i>
   <i type="logical" name="LTRIPLET"> F  </i>
   <i type="logical" name="LFXCEPS"> F  </i>
   <i type="logical" name="LFXHEG"> F  </i>
   <i type="int" name="NATURALO">     2</i>
   <i type="logical" name="L2ORDER"> F  </i>
   <i type="logical" name="LMP2LT"> F  </i>
   <i type="logical" name="LUSEW"> F  </i>
   <i name="ENCUTGW">     -2.00000000</i>
   <i name="ENCUTGWSOFT">     -2.00000000</i>
   <i name="ENCUTLF">     -1.00000000</i>
   <i type="int" name="LMAXMP2">    -1</i>
   <i name="SCISSOR">      0.00000000</i>
   <i type="int" name="NOMEGA">     0</i>
   <i type="int" name="NOMEGAR">     0</i>
   <i type="int" name="NBANDSGW">    -1</i>
   <i type="int" name="NBANDSO">    -1</i>
   <i type="int" name="NBANDSV">    -1</i>
   <i type="int" name="NELM">    60</i>
   <i type="int" name="NELMHF">     1</i>
   <i type="int" name="DIM">     3</i>
   <i type="int" name="ANTIRES">     0</i>
   <i name="OMEGAMAX">    -30.00000000</i>
   <i name="OMEGAMIN">    -30.00000000</i>
   <i name="OMEGATL">   -200.00000000</i>
   <i type="int" name="OMEGAGRID">   140</i>
   <i name="CSHIFT">     -0.10000000</i>
   <i type="logical" name="SELFENERGY"> F  </i>
   <i type="logical" name="LSPECTRAL"> F  </i>
   <i type="logical" name="LSPECTRALGW"> F  </i>
   <i type="logical" name="LSINGLES"> F  </i>
   <i type="logical" name="LFERMIGW"> F  </i>
   <i type="logical" name="ODDONLYGW"> F  </i>
   <i type="logical" name="EVENONLYGW"> F  </i>
   <i type="int" name="NKREDLFX">     1</i>
   <i type="int" name="NKREDLFY">     1</i>
   <i type="int" name="NKREDLFZ">     1</i>
   <i type="int" name="MAXMEM">  2800</i>
   <i type="int" name="TELESCOPE">     0</i>
   <i type="int" name="TAUPAR">     1</i>
   <i type="int" name="OMEGAPAR">    -1</i>
   <i name="LAMBDA">      1.00000000</i>
  </separator>
  <separator name="External order field" >
   <i name="OFIELD_KAPPA">      0.00000000</i>
   <v name="OFIELD_K">      0.00000000      0.00000000      0.00000000</v>
   <i name="OFIELD_Q6_NEAR">      0.00000000</i>
   <i name="OFIELD_Q6_FAR">      0.00000000</i>
   <i name="OFIELD_A">      0.00000000</i>
  </separator>
  <separator name="solvation model" >
   <i type="logical" name="LSOL"> F  </i>
  </separator>
 </parameters>
 <atominfo>
  <atoms>      98 </atoms>
  <types>       4 </types>
  <array name="atoms" >
   <dimension dim="1">ion</dimension>
   <field type="string">element</field>
   <field type="int">atomtype</field>
   <set>
    <rc><c>Ir</c><c>   1</c></rc>
    <rc><c>Ir</c><c>   1</c></rc>
    <rc><c>Ir</c><c>   1</c></rc>
    <rc><c>Ir</c><c>   1</c></rc>
    <rc><c>Ir</c><c>   1</c></rc>
    <rc><c>Ir</c><c>   1</c></rc>
    <rc><c>Ir</c><c>   1</c></rc>
    <rc><c>Ir</c><c>   1</c></rc>
    <rc><c>Ir</c><c>   1</c></rc>
    <rc><c>Ir</c><c>   1</c></rc>
    <rc><c>Ir</c><c>   1</c></rc>
    <rc><c>Ir</c><c>   1</c></rc>
    <rc><c>Ir</c><c>   1</c></rc>
    <rc><c>Ir</c><c>   1</c></rc>
    <rc><c>Ir</c><c>   1</c></rc>
    <rc><c>Ir</c><c>   1</c></rc>
    <rc><c>O </c><c>   2</c></rc>
    <rc><c>O </c><c>   2</c></rc>
    <rc><c>O </c><c>   2</c></rc>
    <rc><c>O </c><c>   2</c></rc>
    <rc><c>O </c><c>   2</c></rc>
    <rc><c>O </c><c>   2</c></rc>
    <rc><c>O </c><c>   2</c></rc>
    <rc><c>O </c><c>   2</c></rc>
    <rc><c>O </c><c>   2</c></rc>
    <rc><c>O </c><c>   2</c></rc>
    <rc><c>O </c><c>   2</c></rc>
    <rc><c>O </c><c>   2</c></rc>
    <rc><c>O </c><c>   2</c></rc>
    <rc><c>O </c><c>   2</c></rc>
    <rc><c>O </c><c>   2</c></rc>
    <rc><c>O </c><c>   2</c></rc>
    <rc><c>O </c><c>   2</c></rc>
    <rc><c>O </c><c>   2</c></rc>
    <rc><c>O </c><c>   2</c></rc>
    <rc><c>O </c><c>   2</c></rc>
    <rc><c>O </c><c>   2</c></rc>
    <rc><c>O </c><c>   2</c></rc>
    <rc><c>O </c><c>   2</c></rc>
    <rc><c>O </c><c>   2</c></rc>
    <rc><c>O </c><c>   2</c></rc>
    <rc><c>O </c><c>   2</c></rc>
    <rc><c>O </c><c>   2</c></rc>
    <rc><c>O </c><c>   2</c></rc>
    <rc><c>O </c><c>   2</c></rc>
    <rc><c>O </c><c>   2</c></rc>
    <rc><c>O </c><c>   2</c></rc>
    <rc><c>O </c><c>   2</c></rc>
    <rc><c>O </c><c>   2</c></rc>
    <rc><c>O </c><c>   2</c></rc>
    <rc><c>Ir</c><c>   3</c></rc>
    <rc><c>Ir</c><c>   3</c></rc>
    <rc><c>Ir</c><c>   3</c></rc>
    <rc><c>Ir</c><c>   3</c></rc>
    <rc><c>Ir</c><c>   3</c></rc>
    <rc><c>Ir</c><c>   3</c></rc>
    <rc><c>Ir</c><c>   3</c></rc>
    <rc><c>Ir</c><c>   3</c></rc>
    <rc><c>Ir</c><c>   3</c></rc>
    <rc><c>Ir</c><c>   3</c></rc>
    <rc><c>Ir</c><c>   3</c></rc>
    <rc><c>Ir</c><c>   3</c></rc>
    <rc><c>Ir</c><c>   3</c></rc>
    <rc><c>Ir</c><c>   3</c></rc>
    <rc><c>Ir</c><c>   3</c></rc>
    <rc><c>O </c><c>   4</c></rc>
    <rc><c>O </c><c>   4</c></rc>
    <rc><c>O </c><c>   4</c></rc>
    <rc><c>O </c><c>   4</c></rc>
    <rc><c>O </c><c>   4</c></rc>
    <rc><c>O </c><c>   4</c></rc>
    <rc><c>O </c><c>   4</c></rc>
    <rc><c>O </c><c>   4</c></rc>
    <rc><c>O </c><c>   4</c></rc>
    <rc><c>O </c><c>   4</c></rc>
    <rc><c>O </c><c>   4</c></rc>
    <rc><c>O </c><c>   4</c></rc>
    <rc><c>O </c><c>   4</c></rc>
    <rc><c>O </c><c>   4</c></rc>
    <rc><c>O </c><c>   4</c></rc>
    <rc><c>O </c><c>   4</c></rc>
    <rc><c>O </c><c>   4</c></rc>
    <rc><c>O </c><c>   4</c></rc>
    <rc><c>O </c><c>   4</c></rc>
    <rc><c>O </c><c>   4</c></rc>
    <rc><c>O </c><c>   4</c></rc>
    <rc><c>O </c><c>   4</c></rc>
    <rc><c>O </c><c>   4</c></rc>
    <rc><c>O </c><c>   4</c></rc>
    <rc><c>O </c><c>   4</c></rc>
    <rc><c>O </c><c>   4</c></rc>
    <rc><c>O </c><c>   4</c></rc>
    <rc><c>O </c><c>   4</c></rc>
    <rc><c>O </c><c>   4</c></rc>
    <rc><c>O </c><c>   4</c></rc>
    <rc><c>O </c><c>   4</c></rc>
    <rc><c>O </c><c>   4</c></rc>
    <rc><c>O </c><c>   4</c></rc>
   </set>
  </array>
  <array name="atomtypes" >
   <dimension dim="1">type</dimension>
   <field type="int">atomspertype</field>
   <field type="string">element</field>
   <field>mass</field>
   <field>valence</field>
   <field type="string">pseudopotential</field>
   <set>
    <rc><c>  16</c><c>Ir</c><c>    192.22000000</c><c>      9.00000000</c><c>  PAW_PBE Ir 06Sep2000                  </c></rc>
    <rc><c>  34</c><c>O </c><c>     16.00000000</c><c>      6.00000000</c><c>  PAW_PBE O 08Apr2002                   </c></rc>
    <rc><c>  15</c><c>Ir</c><c>    192.22000000</c><c>      9.00000000</c><c>  PAW_PBE Ir 06Sep2000                  </c></rc>
    <rc><c>  33</c><c>O </c><c>     16.00000000</c><c>      6.00000000</c><c>  PAW_PBE O 08Apr2002                   </c></rc>
   </set>
  </array>
 </atominfo>
 <structure name="initialpos" >
  <crystal>
   <varray name="basis" >
    <v>      12.80853200       0.00000000       0.00000000 </v>
    <v>       0.00000000       6.47024300       0.00000000 </v>
    <v>       0.00000000       0.00000000      25.88097200 </v>
   </varray>
   <i name="volume">   2144.86781344 </i>
   <varray name="rec_basis" >
    <v>       0.07807296       0.00000000       0.00000000 </v>
    <v>       0.00000000       0.15455370       0.00000000 </v>
    <v>       0.00000000       0.00000000       0.03863843 </v>
   </varray>
  </crystal>
  <varray name="positions" >
   <v>       0.12500000       0.50000000       0.18750000 </v>
   <v>       0.37500000       0.50000000       0.18750000 </v>
   <v>       0.12500000       0.00000000       0.06250000 </v>
   <v>       0.37500000       0.00000000       0.06250000 </v>
   <v>       0.00000000       0.50000000       0.06250000 </v>
   <v>       0.25000000       0.50000000       0.06250000 </v>
   <v>       0.00000000       0.00000000       0.18750000 </v>
   <v>       0.25000000       0.00000000       0.18750000 </v>
   <v>       0.12211537       0.50000000       0.44067068 </v>
   <v>       0.37475107       0.50000000       0.43490483 </v>
   <v>       0.12512816       0.00000000       0.31279259 </v>
   <v>       0.37491034       0.00000000       0.31281151 </v>
   <v>       0.00217389       0.50000000       0.31392298 </v>
   <v>       0.25042695       0.50000000       0.31181039 </v>
   <v>       0.99311913       0.00000000       0.44362833 </v>
   <v>       0.24892771       0.00000000       0.44126346 </v>
   <v>       0.00000000       0.50000000       0.13961000 </v>
   <v>       0.25000000       0.50000000       0.13961000 </v>
   <v>       0.00000000       0.00000000       0.01461000 </v>
   <v>       0.25000000       0.00000000       0.01461000 </v>
   <v>       0.12500000       0.80844000       0.18750000 </v>
   <v>       0.37500000       0.80844000       0.18750000 </v>
   <v>       0.12500000       0.30844000       0.06250000 </v>
   <v>       0.37500000       0.30844000       0.06250000 </v>
   <v>       0.00000000       0.50000000       0.23539000 </v>
   <v>       0.25000000       0.50000000       0.23539000 </v>
   <v>       0.00000000       0.00000000       0.11039000 </v>
   <v>       0.25000000       0.00000000       0.11039000 </v>
   <v>       0.12500000       0.19156000       0.18750000 </v>
   <v>       0.37500000       0.19156000       0.18750000 </v>
   <v>       0.12500000       0.69156000       0.06250000 </v>
   <v>       0.37500000       0.69156000       0.06250000 </v>
   <v>       0.01730553       0.50000000       0.38745324 </v>
   <v>       0.24910958       0.50000000       0.38783744 </v>
   <v>       0.00018119       0.00000000       0.26478826 </v>
   <v>       0.24998285       0.00000000       0.26477872 </v>
   <v>       0.12362848       0.81138035       0.43597922 </v>
   <v>       0.37470215       0.80925795       0.43495848 </v>
   <v>       0.12614899       0.30747371       0.31021570 </v>
   <v>       0.37509423       0.30778101       0.31212274 </v>
   <v>       0.04162200       0.50000000       0.49688556 </v>
   <v>       0.25203467       0.50000000       0.48012919 </v>
   <v>       0.00014043       0.00000000       0.36142272 </v>
   <v>       0.24969468       0.00000000       0.36055562 </v>
   <v>       0.12362848       0.18861965       0.43597922 </v>
   <v>       0.37470215       0.19074205       0.43495848 </v>
   <v>       0.12614899       0.69252629       0.31021570 </v>
   <v>       0.37509423       0.69221899       0.31212274 </v>
   <v>       0.24931084       0.00000000       0.51048863 </v>
   <v>       0.00412603       0.00000000       0.51189782 </v>
   <v>       0.62500000       0.50000000       0.18750000 </v>
   <v>       0.87500000       0.50000000       0.18750000 </v>
   <v>       0.62500000       0.00000000       0.06250000 </v>
   <v>       0.87500000       0.00000000       0.06250000 </v>
   <v>       0.50000000       0.50000000       0.06250000 </v>
   <v>       0.75000000       0.50000000       0.06250000 </v>
   <v>       0.50000000       0.00000000       0.18750000 </v>
   <v>       0.75000000       0.00000000       0.18750000 </v>
   <v>       0.62778288       0.50000000       0.44150502 </v>
   <v>       0.62381611       0.00000000       0.31207810 </v>
   <v>       0.87698968       0.00000000       0.31249620 </v>
   <v>       0.49955909       0.50000000       0.31204715 </v>
   <v>       0.74818933       0.50000000       0.31412570 </v>
   <v>       0.50021949       0.00000000       0.44192508 </v>
   <v>       0.75487617       0.00000000       0.43333706 </v>
   <v>       0.50000000       0.50000000       0.13961000 </v>
   <v>       0.75000000       0.50000000       0.13961000 </v>
   <v>       0.50000000       0.00000000       0.01461000 </v>
   <v>       0.75000000       0.00000000       0.01461000 </v>
   <v>       0.62500000       0.80844000       0.18750000 </v>
   <v>       0.87500000       0.80844000       0.18750000 </v>
   <v>       0.62500000       0.30844000       0.06250000 </v>
   <v>       0.87500000       0.30844000       0.06250000 </v>
   <v>       0.50000000       0.50000000       0.23539000 </v>
   <v>       0.75000000       0.50000000       0.23539000 </v>
   <v>       0.50000000       0.00000000       0.11039000 </v>
   <v>       0.75000000       0.00000000       0.11039000 </v>
   <v>       0.62500000       0.19156000       0.18750000 </v>
   <v>       0.87500000       0.19156000       0.18750000 </v>
   <v>       0.62500000       0.69156000       0.06250000 </v>
   <v>       0.87500000       0.69156000       0.06250000 </v>
   <v>       0.50097726       0.50000000       0.38817780 </v>
   <v>       0.73345766       0.50000000       0.38806442 </v>
   <v>       0.49986752       0.00000000       0.26461170 </v>
   <v>       0.75054892       0.00000000       0.26451358 </v>
   <v>       0.62642971       0.81192569       0.43879064 </v>
   <v>       0.87464157       0.81464589       0.43787123 </v>
   <v>       0.62374133       0.30786954       0.31069406 </v>
   <v>       0.87573542       0.30929815       0.31392214 </v>
   <v>       0.49677300       0.50000000       0.48045356 </v>
   <v>       0.70821545       0.50000000       0.49770942 </v>
   <v>       0.50059967       0.00000000       0.36076831 </v>
   <v>       0.75090574       0.00000000       0.35889142 </v>
   <v>       0.62642971       0.18807431       0.43879064 </v>
   <v>       0.87464157       0.18535411       0.43787123 </v>
   <v>       0.62374133       0.69213046       0.31069406 </v>
   <v>       0.87573542       0.69070185       0.31392214 </v>
   <v>       0.49695417       0.00000000       0.51127429 </v>
  </varray>
  <varray name="selective"  type="logical" >
   <v type="logical" >  F  F  F </v>
   <v type="logical" >  F  F  F </v>
   <v type="logical" >  F  F  F </v>
   <v type="logical" >  F  F  F </v>
   <v type="logical" >  F  F  F </v>
   <v type="logical" >  F  F  F </v>
   <v type="logical" >  F  F  F </v>
   <v type="logical" >  F  F  F </v>
   <v type="logical" >  T  T  T </v>
   <v type="logical" >  T  T  T </v>
   <v type="logical" >  T  T  T </v>
   <v type="logical" >  T  T  T </v>
   <v type="logical" >  T  T  T </v>
   <v type="logical" >  T  T  T </v>
   <v type="logical" >  T  T  T </v>
   <v type="logical" >  T  T  T </v>
   <v type="logical" >  F  F  F </v>
   <v type="logical" >  F  F  F </v>
   <v type="logical" >  F  F  F </v>
   <v type="logical" >  F  F  F </v>
   <v type="logical" >  F  F  F </v>
   <v type="logical" >  F  F  F </v>
   <v type="logical" >  F  F  F </v>
   <v type="logical" >  F  F  F </v>
   <v type="logical" >  F  F  F </v>
   <v type="logical" >  F  F  F </v>
   <v type="logical" >  F  F  F </v>
   <v type="logical" >  F  F  F </v>
   <v type="logical" >  F  F  F </v>
   <v type="logical" >  F  F  F </v>
   <v type="logical" >  F  F  F </v>
   <v type="logical" >  F  F  F </v>
   <v type="logical" >  T  T  T </v>
   <v type="logical" >  T  T  T </v>
   <v type="logical" >  T  T  T </v>
   <v type="logical" >  T  T  T </v>
   <v type="logical" >  T  T  T </v>
   <v type="logical" >  T  T  T </v>
   <v type="logical" >  T  T  T </v>
   <v type="logical" >  T  T  T </v>
   <v type="logical" >  T  T  T </v>
   <v type="logical" >  T  T  T </v>
   <v type="logical" >  T  T  T </v>
   <v type="logical" >  T  T  T </v>
   <v type="logical" >  T  T  T </v>
   <v type="logical" >  T  T  T </v>
   <v type="logical" >  T  T  T </v>
   <v type="logical" >  T  T  T </v>
   <v type="logical" >  T  T  T </v>
   <v type="logical" >  T  T  T </v>
   <v type="logical" >  F  F  F </v>
   <v type="logical" >  F  F  F </v>
   <v type="logical" >  F  F  F </v>
   <v type="logical" >  F  F  F </v>
   <v type="logical" >  F  F  F </v>
   <v type="logical" >  F  F  F </v>
   <v type="logical" >  F  F  F </v>
   <v type="logical" >  F  F  F </v>
   <v type="logical" >  T  T  T </v>
   <v type="logical" >  T  T  T </v>
   <v type="logical" >  T  T  T </v>
   <v type="logical" >  T  T  T </v>
   <v type="logical" >  T  T  T </v>
   <v type="logical" >  T  T  T </v>
   <v type="logical" >  T  T  T </v>
   <v type="logical" >  F  F  F </v>
   <v type="logical" >  F  F  F </v>
   <v type="logical" >  F  F  F </v>
   <v type="logical" >  F  F  F </v>
   <v type="logical" >  F  F  F </v>
   <v type="logical" >  F  F  F </v>
   <v type="logical" >  F  F  F </v>
   <v type="logical" >  F  F  F </v>
   <v type="logical" >  F  F  F </v>
   <v type="logical" >  F  F  F </v>
   <v type="logical" >  F  F  F </v>
   <v type="logical" >  F  F  F </v>
   <v type="logical" >  F  F  F </v>
   <v type="logical" >  F  F  F </v>
   <v type="logical" >  F  F  F </v>
   <v type="logical" >  F  F  F </v>
   <v type="logical" >  T  T  T </v>
   <v type="logical" >  T  T  T </v>
   <v type="logical" >  T  T  T </v>
   <v type="logical" >  T  T  T </v>
   <v type="logical" >  T  T  T </v>
   <v type="logical" >  T  T  T </v>
   <v type="logical" >  T  T  T </v>
   <v type="logical" >  T  T  T </v>
   <v type="logical" >  T  T  T </v>
   <v type="logical" >  T  T  T </v>
   <v type="logical" >  T  T  T </v>
   <v type="logical" >  T  T  T </v>
   <v type="logical" >  T  T  T </v>
   <v type="logical" >  T  T  T </v>
   <v type="logical" >  T  T  T </v>
   <v type="logical" >  T  T  T </v>
   <v type="logical" >  T  T  T </v>
  </varray>
  <nose>
   <v>      -3.00000000       0.00000000       0.00010000       0.00010000 </v>
  </nose>
 </structure>
 <calculation>
  <scstep>
   <time name="dav">    5.80    5.83</time>
   <time name="total">    5.86    5.89</time>
   <dipole>
    <v name="dipole">      0.00000000       0.00000000       0.00001102 </v>
    <i name="Tr[quadrupol]"> -12707.60808586 </i>
    <i name="Echarged">      0.00000000 </i>
    <i name="Edipol_quadrupol">      0.00000000 </i>
    <i name="Eion">      0.00000000 </i>
   </dipole>
   <energy>
    <i name="alphaZ">   1739.63037017 </i>
    <i name="ewald"> 225826.72232937 </i>
    <i name="hartreedc">-271589.48344239 </i>
    <i name="XCdc">   1295.14071892 </i>
    <i name="pawpsdc">  40354.58655455 </i>
    <i name="pawaedc"> -39177.98878306 </i>
    <i name="eentropy">     -0.05245320 </i>
    <i name="bandstr">   3019.27679500 </i>
    <i name="atom">  46306.32569913 </i>
    <i name="e_fr_energy">   7774.15778851 </i>
    <i name="e_wo_entrp">   7774.21024171 </i>
    <i name="e_0_energy">   7774.18401511 </i>
   </energy>
  </scstep>
  <scstep>
   <time name="dav">    5.95    5.96</time>
   <time name="total">    5.95    5.96</time>
   <dipole>
    <v name="dipole">      0.00000000       0.00000000       0.00001102 </v>
    <i name="Tr[quadrupol]"> -12707.60808586 </i>
    <i name="Echarged">      0.00000000 </i>
    <i name="Edipol_quadrupol">      0.00000000 </i>
    <i name="Eion">      0.00000000 </i>
   </dipole>
   <energy>
    <i name="e_fr_energy">    670.41073966 </i>
    <i name="e_wo_entrp">    670.44444114 </i>
    <i name="e_0_energy">    670.42759040 </i>
   </energy>
  </scstep>
  <scstep>
   <time name="dav">    7.33    7.35</time>
   <time name="total">    7.33    7.35</time>
   <dipole>
    <v name="dipole">      0.00000000       0.00000000       0.00001102 </v>
    <i name="Tr[quadrupol]"> -12707.60808586 </i>
    <i name="Echarged">      0.00000000 </i>
    <i name="Edipol_quadrupol">      0.00000000 </i>
    <i name="Eion">      0.00000000 </i>
   </dipole>
   <energy>
    <i name="e_fr_energy">   -674.35441299 </i>
    <i name="e_wo_entrp">   -674.28026621 </i>
    <i name="e_0_energy">   -674.31733960 </i>
   </energy>
  </scstep>
  <scstep>
   <time name="dav">    7.19    7.21</time>
   <time name="total">    7.19    7.21</time>
   <dipole>
    <v name="dipole">      0.00000000       0.00000000       0.00001102 </v>
    <i name="Tr[quadrupol]"> -12707.60808586 </i>
    <i name="Echarged">      0.00000000 </i>
    <i name="Edipol_quadrupol">      0.00000000 </i>
    <i name="Eion">      0.00000000 </i>
   </dipole>
   <energy>
    <i name="e_fr_energy">   -769.48160430 </i>
    <i name="e_wo_entrp">   -769.39155471 </i>
    <i name="e_0_energy">   -769.43657951 </i>
   </energy>
  </scstep>
  <scstep>
   <time name="dav">    6.90    6.92</time>
   <time name="total">    7.06    7.09</time>
   <dipole>
    <v name="dipole">      0.00000000       0.00000000       0.00001102 </v>
    <i name="Tr[quadrupol]"> -12707.60808586 </i>
    <i name="Echarged">      0.00000000 </i>
    <i name="Edipol_quadrupol">      0.00000000 </i>
    <i name="Eion">      0.00000000 </i>
   </dipole>
   <energy>
    <i name="e_fr_energy">   -773.11833333 </i>
    <i name="e_wo_entrp">   -773.02677410 </i>
    <i name="e_0_energy">   -773.07255372 </i>
   </energy>
  </scstep>
  <scstep>
   <time name="diag">    0.80    0.80</time>
   <time name="diis">    2.50    2.50</time>
   <time name="orth">    0.24    0.24</time>
   <time name="total">    3.74    3.75</time>
   <dipole>
    <v name="dipole">      0.00000000       0.00000000       0.47764313 </v>
    <i name="Tr[quadrupol]"> -12692.33779784 </i>
    <i name="Echarged">      0.00000000 </i>
    <i name="Edipol_quadrupol">      0.00000000 </i>
    <i name="Eion">      0.00000000 </i>
   </dipole>
   <energy>
    <i name="e_fr_energy">   -676.92507646 </i>
    <i name="e_wo_entrp">   -676.85715807 </i>
    <i name="e_0_energy">   -676.89111727 </i>
   </energy>
  </scstep>
  <scstep>
   <time name="diag">    0.80    0.80</time>
   <time name="diis">    2.72    2.72</time>
   <time name="orth">    0.24    0.24</time>
   <time name="total">    3.96    3.97</time>
   <dipole>
    <v name="dipole">      0.00000000       0.00000000      -3.93675466 </v>
    <i name="Tr[quadrupol]"> -12749.04824618 </i>
    <i name="Echarged">      0.00000000 </i>
    <i name="Edipol_quadrupol">      0.00000000 </i>
    <i name="Eion">      0.00000000 </i>
   </dipole>
   <energy>
    <i name="e_fr_energy">   -936.25857453 </i>
    <i name="e_wo_entrp">   -936.18927183 </i>
    <i name="e_0_energy">   -936.22392318 </i>
   </energy>
  </scstep>
  <scstep>
   <time name="diag">    0.80    0.80</time>
   <time name="diis">    2.38    2.38</time>
   <time name="orth">    0.24    0.24</time>
   <time name="total">    3.61    3.62</time>
   <dipole>
    <v name="dipole">      0.00000000       0.00000000       0.08509906 </v>
    <i name="Tr[quadrupol]"> -12742.99737307 </i>
    <i name="Echarged">      0.00000000 </i>
    <i name="Edipol_quadrupol">      0.00000000 </i>
    <i name="Eion">      0.00000000 </i>
   </dipole>
   <energy>
    <i name="e_fr_energy">   -793.05318334 </i>
    <i name="e_wo_entrp">   -793.01631871 </i>
    <i name="e_0_energy">   -793.03475102 </i>
   </energy>
  </scstep>
  <scstep>
   <time name="diag">    0.80    0.80</time>
   <time name="diis">    2.51    2.51</time>
   <time name="orth">    0.24    0.24</time>
   <time name="total">    3.74    3.75</time>
   <dipole>
    <v name="dipole">      0.00000000       0.00000000      -5.62158037 </v>
    <i name="Tr[quadrupol]"> -12705.29842713 </i>
    <i name="Echarged">      0.00000000 </i>
    <i name="Edipol_quadrupol">      0.00000000 </i>
    <i name="Eion">      0.00000000 </i>
   </dipole>
   <energy>
    <i name="e_fr_energy">  -1135.96032043 </i>
    <i name="e_wo_entrp">  -1135.92990702 </i>
    <i name="e_0_energy">  -1135.94511372 </i>
   </energy>
  </scstep>
  <scstep>
   <time name="diag">    0.80    0.80</time>
   <time name="diis">    2.77    2.78</time>
   <time name="orth">    0.24    0.24</time>
   <time name="total">    4.02    4.03</time>
   <dipole>
    <v name="dipole">      0.00000000       0.00000000      -1.96642545 </v>
    <i name="Tr[quadrupol]"> -12701.67564207 </i>
    <i name="Echarged">      0.00000000 </i>
    <i name="Edipol_quadrupol">      0.00000000 </i>
    <i name="Eion">      0.00000000 </i>
   </dipole>
   <energy>
    <i name="e_fr_energy">   -829.52497435 </i>
    <i name="e_wo_entrp">   -829.45007543 </i>
    <i name="e_0_energy">   -829.48752489 </i>
   </energy>
  </scstep>
  <scstep>
   <time name="diag">    0.80    0.80</time>
   <time name="diis">    2.32    2.32</time>
   <time name="orth">    0.24    0.24</time>
   <time name="total">    3.56    3.57</time>
   <dipole>
    <v name="dipole">      0.00000000       0.00000000      -4.70305537 </v>
    <i name="Tr[quadrupol]"> -12703.58448503 </i>
    <i name="Echarged">      0.00000000 </i>
    <i name="Edipol_quadrupol">      0.00000000 </i>
    <i name="Eion">      0.00000000 </i>
   </dipole>
   <energy>
    <i name="e_fr_energy">   -967.58758892 </i>
    <i name="e_wo_entrp">   -967.52426212 </i>
    <i name="e_0_energy">   -967.55592552 </i>
   </energy>
  </scstep>
  <scstep>
   <time name="diag">    0.80    0.80</time>
   <time name="diis">    2.45    2.46</time>
   <time name="orth">    0.25    0.25</time>
   <time name="total">    3.71    3.72</time>
   <dipole>
    <v name="dipole">      0.00000000       0.00000000       0.96108368 </v>
    <i name="Tr[quadrupol]"> -12716.38195315 </i>
    <i name="Echarged">      0.00000000 </i>
    <i name="Edipol_quadrupol">      0.00000000 </i>
    <i name="Eion">      0.00000000 </i>
   </dipole>
   <energy>
    <i name="e_fr_energy">   -688.73058342 </i>
    <i name="e_wo_entrp">   -688.65881787 </i>
    <i name="e_0_energy">   -688.69470064 </i>
   </energy>
  </scstep>
  <scstep>
   <time name="diag">    0.80    0.80</time>
   <time name="diis">    2.52    2.53</time>
   <time name="orth">    0.24    0.24</time>
   <time name="total">    3.76    3.77</time>
   <dipole>
    <v name="dipole">      0.00000000       0.00000000      -0.08964447 </v>
    <i name="Tr[quadrupol]"> -12713.10371612 </i>
    <i name="Echarged">      0.00000000 </i>
    <i name="Edipol_quadrupol">      0.00000000 </i>
    <i name="Eion">      0.00000000 </i>
   </dipole>
   <energy>
    <i name="e_fr_energy">   -650.87186896 </i>
    <i name="e_wo_entrp">   -650.78706632 </i>
    <i name="e_0_energy">   -650.82946764 </i>
   </energy>
  </scstep>
  <scstep>
   <time name="diag">    0.80    0.80</time>
   <time name="diis">    2.38    2.39</time>
   <time name="orth">    0.24    0.24</time>
   <time name="total">    3.63    3.64</time>
   <dipole>
    <v name="dipole">      0.00000000       0.00000000       1.10533528 </v>
    <i name="Tr[quadrupol]"> -12701.85311702 </i>
    <i name="Echarged">      0.00000000 </i>
    <i name="Edipol_quadrupol">      0.00000000 </i>
    <i name="Eion">      0.00000000 </i>
   </dipole>
   <energy>
    <i name="e_fr_energy">   -658.27601749 </i>
    <i name="e_wo_entrp">   -658.20446382 </i>
    <i name="e_0_energy">   -658.24024066 </i>
   </energy>
  </scstep>
  <scstep>
   <time name="diag">    0.80    0.80</time>
   <time name="diis">    2.58    2.58</time>
   <time name="orth">    0.24    0.24</time>
   <time name="total">    3.82    3.83</time>
   <dipole>
    <v name="dipole">      0.00000000       0.00000000       0.17542926 </v>
    <i name="Tr[quadrupol]"> -12703.32060177 </i>
    <i name="Echarged">      0.00000000 </i>
    <i name="Edipol_quadrupol">      0.00000000 </i>
    <i name="Eion">      0.00000000 </i>
   </dipole>
   <energy>
    <i name="e_fr_energy">   -631.97326958 </i>
    <i name="e_wo_entrp">   -631.92932250 </i>
    <i name="e_0_energy">   -631.95129604 </i>
   </energy>
  </scstep>
  <scstep>
   <time name="diag">    0.80    0.80</time>
   <time name="diis">    2.34    2.34</time>
   <time name="orth">    0.24    0.24</time>
   <time name="total">    3.58    3.59</time>
   <dipole>
    <v name="dipole">      0.00000000       0.00000000       0.22095047 </v>
    <i name="Tr[quadrupol]"> -12703.06736124 </i>
    <i name="Echarged">      0.00000000 </i>
    <i name="Edipol_quadrupol">      0.00000000 </i>
    <i name="Eion">      0.00000000 </i>
   </dipole>
   <energy>
    <i name="e_fr_energy">   -626.16778408 </i>
    <i name="e_wo_entrp">   -626.10397321 </i>
    <i name="e_0_energy">   -626.13587865 </i>
   </energy>
  </scstep>
  <scstep>
   <time name="diag">    0.80    0.80</time>
   <time name="diis">    2.80    2.81</time>
   <time name="orth">    0.24    0.24</time>
   <time name="total">    4.05    4.06</time>
   <dipole>
    <v name="dipole">      0.00000000       0.00000000       0.32338628 </v>
    <i name="Tr[quadrupol]"> -12701.91499571 </i>
    <i name="Echarged">      0.00000000 </i>
    <i name="Edipol_quadrupol">      0.00000000 </i>
    <i name="Eion">      0.00000000 </i>
   </dipole>
   <energy>
    <i name="e_fr_energy">   -625.20351999 </i>
    <i name="e_wo_entrp">   -625.13891443 </i>
    <i name="e_0_energy">   -625.17121721 </i>
   </energy>
  </scstep>
  <scstep>
   <time name="diag">    0.80    0.80</time>
   <time name="diis">    2.47    2.48</time>
   <time name="orth">    0.24    0.24</time>
   <time name="total">    3.72    3.73</time>
   <dipole>
    <v name="dipole">      0.00000000       0.00000000       0.40698644 </v>
    <i name="Tr[quadrupol]"> -12701.61976720 </i>
    <i name="Echarged">      0.00000000 </i>
    <i name="Edipol_quadrupol">      0.00000000 </i>
    <i name="Eion">      0.00000000 </i>
   </dipole>
   <energy>
    <i name="e_fr_energy">   -625.78908155 </i>
    <i name="e_wo_entrp">   -625.72138798 </i>
    <i name="e_0_energy">   -625.75523477 </i>
   </energy>
  </scstep>
  <scstep>
   <time name="diag">    0.80    0.80</time>
   <time name="diis">    2.38    2.39</time>
   <time name="orth">    0.24    0.24</time>
   <time name="total">    3.62    3.63</time>
   <dipole>
    <v name="dipole">      0.00000000       0.00000000       0.42731090 </v>
    <i name="Tr[quadrupol]"> -12701.02776459 </i>
    <i name="Echarged">      0.00000000 </i>
    <i name="Edipol_quadrupol">      0.00000000 </i>
    <i name="Eion">      0.00000000 </i>
   </dipole>
   <energy>
    <i name="e_fr_energy">   -625.09926889 </i>
    <i name="e_wo_entrp">   -625.04062778 </i>
    <i name="e_0_energy">   -625.06994833 </i>
   </energy>
  </scstep>
  <scstep>
   <time name="diag">    0.80    0.80</time>
   <time name="diis">    2.31    2.32</time>
   <time name="orth">    0.24    0.24</time>
   <time name="total">    3.56    3.57</time>
   <dipole>
    <v name="dipole">      0.00000000       0.00000000       0.31361581 </v>
    <i name="Tr[quadrupol]"> -12699.59707273 </i>
    <i name="Echarged">      0.00000000 </i>
    <i name="Edipol_quadrupol">      0.00000000 </i>
    <i name="Eion">      0.00000000 </i>
   </dipole>
   <energy>
    <i name="e_fr_energy">   -622.15541749 </i>
    <i name="e_wo_entrp">   -622.06997139 </i>
    <i name="e_0_energy">   -622.11269444 </i>
   </energy>
  </scstep>
  <scstep>
   <time name="diag">    0.80    0.80</time>
   <time name="diis">    2.54    2.54</time>
   <time name="orth">    0.24    0.24</time>
   <time name="total">    3.79    3.80</time>
   <dipole>
    <v name="dipole">      0.00000000       0.00000000       0.35144215 </v>
    <i name="Tr[quadrupol]"> -12698.71580678 </i>
    <i name="Echarged">      0.00000000 </i>
    <i name="Edipol_quadrupol">      0.00000000 </i>
    <i name="Eion">      0.00000000 </i>
   </dipole>
   <energy>
    <i name="e_fr_energy">   -621.62965801 </i>
    <i name="e_wo_entrp">   -621.54048071 </i>
    <i name="e_0_energy">   -621.58506936 </i>
   </energy>
  </scstep>
  <scstep>
   <time name="diag">    0.80    0.80</time>
   <time name="diis">    2.45    2.46</time>
   <time name="orth">    0.24    0.24</time>
   <time name="total">    3.69    3.70</time>
   <dipole>
    <v name="dipole">      0.00000000       0.00000000       0.37367766 </v>
    <i name="Tr[quadrupol]"> -12698.36094819 </i>
    <i name="Echarged">      0.00000000 </i>
    <i name="Edipol_quadrupol">      0.00000000 </i>
    <i name="Eion">      0.00000000 </i>
   </dipole>
   <energy>
    <i name="e_fr_energy">   -621.72384189 </i>
    <i name="e_wo_entrp">   -621.63897598 </i>
    <i name="e_0_energy">   -621.68140893 </i>
   </energy>
  </scstep>
  <scstep>
   <time name="diag">    0.80    0.80</time>
   <time name="diis">    2.38    2.39</time>
   <time name="orth">    0.24    0.24</time>
   <time name="total">    3.63    3.64</time>
   <dipole>
    <v name="dipole">      0.00000000       0.00000000       0.33092965 </v>
    <i name="Tr[quadrupol]"> -12698.25292083 </i>
    <i name="Echarged">      0.00000000 </i>
    <i name="Edipol_quadrupol">      0.00000000 </i>
    <i name="Eion">      0.00000000 </i>
   </dipole>
   <energy>
    <i name="e_fr_energy">   -621.62512604 </i>
    <i name="e_wo_entrp">   -621.53783823 </i>
    <i name="e_0_energy">   -621.58148214 </i>
   </energy>
  </scstep>
  <scstep>
   <time name="diag">    0.80    0.80</time>
   <time name="diis">    2.65    2.66</time>
   <time name="orth">    0.24    0.24</time>
   <time name="total">    3.90    3.91</time>
   <dipole>
    <v name="dipole">      0.00000000       0.00000000       0.33942951 </v>
    <i name="Tr[quadrupol]"> -12698.25002340 </i>
    <i name="Echarged">      0.00000000 </i>
    <i name="Edipol_quadrupol">      0.00000000 </i>
    <i name="Eion">      0.00000000 </i>
   </dipole>
   <energy>
    <i name="e_fr_energy">   -621.52427005 </i>
    <i name="e_wo_entrp">   -621.43553859 </i>
    <i name="e_0_energy">   -621.47990432 </i>
   </energy>
  </scstep>
  <scstep>
   <time name="diag">    0.80    0.80</time>
   <time name="diis">    2.30    2.30</time>
   <time name="orth">    0.24    0.24</time>
   <time name="total">    3.54    3.55</time>
   <dipole>
    <v name="dipole">      0.00000000       0.00000000       0.40983151 </v>
    <i name="Tr[quadrupol]"> -12697.77658573 </i>
    <i name="Echarged">      0.00000000 </i>
    <i name="Edipol_quadrupol">      0.00000000 </i>
    <i name="Eion">      0.00000000 </i>
   </dipole>
   <energy>
    <i name="e_fr_energy">   -621.44032849 </i>
    <i name="e_wo_entrp">   -621.34859571 </i>
    <i name="e_0_energy">   -621.39446210 </i>
   </energy>
  </scstep>
  <scstep>
   <time name="diag">    0.80    0.80</time>
   <time name="diis">    2.36    2.37</time>
   <time name="orth">    0.24    0.24</time>
   <time name="total">    3.60    3.62</time>
   <dipole>
    <v name="dipole">      0.00000000       0.00000000       0.44808090 </v>
    <i name="Tr[quadrupol]"> -12697.41540508 </i>
    <i name="Echarged">      0.00000000 </i>
    <i name="Edipol_quadrupol">      0.00000000 </i>
    <i name="Eion">      0.00000000 </i>
   </dipole>
   <energy>
    <i name="e_fr_energy">   -621.38977284 </i>
    <i name="e_wo_entrp">   -621.30175779 </i>
    <i name="e_0_energy">   -621.34576531 </i>
   </energy>
  </scstep>
  <scstep>
   <time name="diag">    0.80    0.80</time>
   <time name="diis">    2.37    2.37</time>
   <time name="orth">    0.24    0.24</time>
   <time name="total">    3.61    3.62</time>
   <dipole>
    <v name="dipole">      0.00000000       0.00000000       0.43661971 </v>
    <i name="Tr[quadrupol]"> -12697.36839296 </i>
    <i name="Echarged">      0.00000000 </i>
    <i name="Edipol_quadrupol">      0.00000000 </i>
    <i name="Eion">      0.00000000 </i>
   </dipole>
   <energy>
    <i name="e_fr_energy">   -621.27369307 </i>
    <i name="e_wo_entrp">   -621.17846207 </i>
    <i name="e_0_energy">   -621.22607757 </i>
   </energy>
  </scstep>
  <scstep>
   <time name="diag">    0.80    0.80</time>
   <time name="diis">    2.34    2.35</time>
   <time name="orth">    0.24    0.24</time>
   <time name="total">    3.59    3.60</time>
   <dipole>
    <v name="dipole">      0.00000000       0.00000000       0.42994147 </v>
    <i name="Tr[quadrupol]"> -12697.36577752 </i>
    <i name="Echarged">      0.00000000 </i>
    <i name="Edipol_quadrupol">      0.00000000 </i>
    <i name="Eion">      0.00000000 </i>
   </dipole>
   <energy>
    <i name="e_fr_energy">   -621.26002047 </i>
    <i name="e_wo_entrp">   -621.16626299 </i>
    <i name="e_0_energy">   -621.21314173 </i>
   </energy>
  </scstep>
  <scstep>
   <time name="diag">    0.80    0.80</time>
   <time name="diis">    2.39    2.40</time>
   <time name="orth">    0.24    0.24</time>
   <time name="total">    3.63    3.64</time>
   <dipole>
    <v name="dipole">      0.00000000       0.00000000       0.44805006 </v>
    <i name="Tr[quadrupol]"> -12697.26576941 </i>
    <i name="Echarged">      0.00000000 </i>
    <i name="Edipol_quadrupol">      0.00000000 </i>
    <i name="Eion">      0.00000000 </i>
   </dipole>
   <energy>
    <i name="e_fr_energy">   -621.24476388 </i>
    <i name="e_wo_entrp">   -621.15029167 </i>
    <i name="e_0_energy">   -621.19752778 </i>
   </energy>
  </scstep>
  <scstep>
   <time name="diag">    0.80    0.80</time>
   <time name="diis">    2.35    2.36</time>
   <time name="orth">    0.24    0.24</time>
   <time name="total">    3.59    3.61</time>
   <dipole>
    <v name="dipole">      0.00000000       0.00000000       0.44788136 </v>
    <i name="Tr[quadrupol]"> -12697.20907934 </i>
    <i name="Echarged">      0.00000000 </i>
    <i name="Edipol_quadrupol">      0.00000000 </i>
    <i name="Eion">      0.00000000 </i>
   </dipole>
   <energy>
    <i name="e_fr_energy">   -621.24982462 </i>
    <i name="e_wo_entrp">   -621.15737372 </i>
    <i name="e_0_energy">   -621.20359917 </i>
   </energy>
  </scstep>
  <scstep>
   <time name="diag">    0.80    0.80</time>
   <time name="diis">    2.33    2.34</time>
   <time name="orth">    0.24    0.24</time>
   <time name="total">    3.58    3.59</time>
   <dipole>
    <v name="dipole">      0.00000000       0.00000000       0.46190790 </v>
    <i name="Tr[quadrupol]"> -12697.08642237 </i>
    <i name="Echarged">      0.00000000 </i>
    <i name="Edipol_quadrupol">      0.00000000 </i>
    <i name="Eion">      0.00000000 </i>
   </dipole>
   <energy>
    <i name="e_fr_energy">   -621.24717057 </i>
    <i name="e_wo_entrp">   -621.15624061 </i>
    <i name="e_0_energy">   -621.20170559 </i>
   </energy>
  </scstep>
  <scstep>
   <time name="diag">    0.80    0.80</time>
   <time name="diis">    2.38    2.39</time>
   <time name="orth">    0.24    0.24</time>
   <time name="total">    3.63    3.64</time>
   <dipole>
    <v name="dipole">      0.00000000       0.00000000       0.48853122 </v>
    <i name="Tr[quadrupol]"> -12697.08894173 </i>
    <i name="Echarged">      0.00000000 </i>
    <i name="Edipol_quadrupol">      0.00000000 </i>
    <i name="Eion">      0.00000000 </i>
   </dipole>
   <energy>
    <i name="e_fr_energy">   -621.22057086 </i>
    <i name="e_wo_entrp">   -621.12623443 </i>
    <i name="e_0_energy">   -621.17340265 </i>
   </energy>
  </scstep>
  <scstep>
   <time name="diag">    0.81    0.81</time>
   <time name="diis">    2.49    2.49</time>
   <time name="orth">    0.24    0.24</time>
   <time name="total">    3.75    3.76</time>
   <dipole>
    <v name="dipole">      0.00000000       0.00000000       0.48917116 </v>
    <i name="Tr[quadrupol]"> -12697.09523705 </i>
    <i name="Echarged">      0.00000000 </i>
    <i name="Edipol_quadrupol">      0.00000000 </i>
    <i name="Eion">      0.00000000 </i>
   </dipole>
   <energy>
    <i name="e_fr_energy">   -621.22099004 </i>
    <i name="e_wo_entrp">   -621.12668189 </i>
    <i name="e_0_energy">   -621.17383596 </i>
   </energy>
  </scstep>
  <scstep>
   <time name="diag">    0.80    0.80</time>
   <time name="diis">    2.49    2.50</time>
   <time name="orth">    0.24    0.24</time>
   <time name="total">    3.73    3.74</time>
   <dipole>
    <v name="dipole">      0.00000000       0.00000000       0.49342710 </v>
    <i name="Tr[quadrupol]"> -12697.06656347 </i>
    <i name="Echarged">      0.00000000 </i>
    <i name="Edipol_quadrupol">      0.00000000 </i>
    <i name="Eion">      0.00000000 </i>
   </dipole>
   <energy>
    <i name="e_fr_energy">   -621.22077915 </i>
    <i name="e_wo_entrp">   -621.12663072 </i>
    <i name="e_0_energy">   -621.17370493 </i>
   </energy>
  </scstep>
  <scstep>
   <time name="diag">    0.80    0.80</time>
   <time name="diis">    2.46    2.47</time>
   <time name="orth">    0.24    0.24</time>
   <time name="total">    3.71    3.72</time>
   <dipole>
    <v name="dipole">      0.00000000       0.00000000       0.50923581 </v>
    <i name="Tr[quadrupol]"> -12697.02856665 </i>
    <i name="Echarged">      0.00000000 </i>
    <i name="Edipol_quadrupol">      0.00000000 </i>
    <i name="Eion">      0.00000000 </i>
   </dipole>
   <energy>
    <i name="e_fr_energy">   -621.21265282 </i>
    <i name="e_wo_entrp">   -621.11733260 </i>
    <i name="e_0_energy">   -621.16499271 </i>
   </energy>
  </scstep>
  <scstep>
   <time name="diag">    0.81    0.81</time>
   <time name="diis">    2.33    2.34</time>
   <time name="orth">    0.24    0.24</time>
   <time name="total">    3.59    3.60</time>
   <dipole>
    <v name="dipole">      0.00000000       0.00000000       0.52826203 </v>
    <i name="Tr[quadrupol]"> -12697.01580371 </i>
    <i name="Echarged">      0.00000000 </i>
    <i name="Edipol_quadrupol">      0.00000000 </i>
    <i name="Eion">      0.00000000 </i>
   </dipole>
   <energy>
    <i name="e_fr_energy">   -621.20655956 </i>
    <i name="e_wo_entrp">   -621.10993423 </i>
    <i name="e_0_energy">   -621.15824689 </i>
   </energy>
  </scstep>
  <scstep>
   <time name="diag">    0.80    0.80</time>
   <time name="diis">    2.66    2.66</time>
   <time name="orth">    0.24    0.24</time>
   <time name="total">    3.91    3.92</time>
   <dipole>
    <v name="dipole">      0.00000000       0.00000000       0.54150099 </v>
    <i name="Tr[quadrupol]"> -12697.05120388 </i>
    <i name="Echarged">      0.00000000 </i>
    <i name="Edipol_quadrupol">      0.00000000 </i>
    <i name="Eion">      0.00000000 </i>
   </dipole>
   <energy>
    <i name="e_fr_energy">   -621.20462327 </i>
    <i name="e_wo_entrp">   -621.10702104 </i>
    <i name="e_0_energy">   -621.15582215 </i>
   </energy>
  </scstep>
  <scstep>
   <time name="diag">    0.80    0.80</time>
   <time name="diis">    2.70    2.71</time>
   <time name="orth">    0.24    0.24</time>
   <time name="total">    3.95    3.97</time>
   <dipole>
    <v name="dipole">      0.00000000       0.00000000       0.54621734 </v>
    <i name="Tr[quadrupol]"> -12697.07023676 </i>
    <i name="Echarged">      0.00000000 </i>
    <i name="Edipol_quadrupol">      0.00000000 </i>
    <i name="Eion">      0.00000000 </i>
   </dipole>
   <energy>
    <i name="e_fr_energy">   -621.20503746 </i>
    <i name="e_wo_entrp">   -621.10730388 </i>
    <i name="e_0_energy">   -621.15617067 </i>
   </energy>
  </scstep>
  <scstep>
   <time name="diag">    0.79    0.80</time>
   <time name="diis">    2.41    2.42</time>
   <time name="orth">    0.24    0.24</time>
   <time name="total">    3.66    3.67</time>
   <dipole>
    <v name="dipole">      0.00000000       0.00000000       0.55272393 </v>
    <i name="Tr[quadrupol]"> -12697.08036354 </i>
    <i name="Echarged">      0.00000000 </i>
    <i name="Edipol_quadrupol">      0.00000000 </i>
    <i name="Eion">      0.00000000 </i>
   </dipole>
   <energy>
    <i name="e_fr_energy">   -621.20585342 </i>
    <i name="e_wo_entrp">   -621.10775213 </i>
    <i name="e_0_energy">   -621.15680277 </i>
   </energy>
  </scstep>
  <scstep>
   <time name="diag">    0.79    0.80</time>
   <time name="diis">    2.38    2.38</time>
   <time name="orth">    0.24    0.24</time>
   <time name="total">    3.62    3.63</time>
   <dipole>
    <v name="dipole">      0.00000000       0.00000000       0.55982842 </v>
    <i name="Tr[quadrupol]"> -12697.07637374 </i>
    <i name="Echarged">      0.00000000 </i>
    <i name="Edipol_quadrupol">      0.00000000 </i>
    <i name="Eion">      0.00000000 </i>
   </dipole>
   <energy>
    <i name="e_fr_energy">   -621.20632553 </i>
    <i name="e_wo_entrp">   -621.10812151 </i>
    <i name="e_0_energy">   -621.15722352 </i>
   </energy>
  </scstep>
  <scstep>
   <time name="diag">    0.79    0.80</time>
   <time name="diis">    2.29    2.30</time>
   <time name="orth">    0.24    0.24</time>
   <time name="total">    3.54    3.55</time>
   <dipole>
    <v name="dipole">      0.00000000       0.00000000       0.56281893 </v>
    <i name="Tr[quadrupol]"> -12697.04793717 </i>
    <i name="Echarged">      0.00000000 </i>
    <i name="Edipol_quadrupol">      0.00000000 </i>
    <i name="Eion">      0.00000000 </i>
   </dipole>
   <energy>
    <i name="e_fr_energy">   -621.20623297 </i>
    <i name="e_wo_entrp">   -621.10796803 </i>
    <i name="e_0_energy">   -621.15710050 </i>
   </energy>
  </scstep>
  <scstep>
   <time name="diag">    0.79    0.80</time>
   <time name="diis">    2.14    2.15</time>
   <time name="orth">    0.24    0.24</time>
   <time name="total">    3.39    3.40</time>
   <dipole>
    <v name="dipole">      0.00000000       0.00000000       0.56680169 </v>
    <i name="Tr[quadrupol]"> -12697.00944354 </i>
    <i name="Echarged">      0.00000000 </i>
    <i name="Edipol_quadrupol">      0.00000000 </i>
    <i name="Eion">      0.00000000 </i>
   </dipole>
   <energy>
    <i name="e_fr_energy">   -621.20598782 </i>
    <i name="e_wo_entrp">   -621.10771157 </i>
    <i name="e_0_energy">   -621.15684969 </i>
   </energy>
  </scstep>
  <scstep>
   <time name="diag">    0.80    0.80</time>
   <time name="diis">    2.11    2.12</time>
   <time name="orth">    0.25    0.25</time>
   <time name="total">    3.37    3.38</time>
   <dipole>
    <v name="dipole">      0.00000000       0.00000000       0.56721602 </v>
    <i name="Tr[quadrupol]"> -12696.99345485 </i>
    <i name="Echarged">      0.00000000 </i>
    <i name="Edipol_quadrupol">      0.00000000 </i>
    <i name="Eion">      0.00000000 </i>
   </dipole>
   <energy>
    <i name="e_fr_energy">   -621.20537453 </i>
    <i name="e_wo_entrp">   -621.10728794 </i>
    <i name="e_0_energy">   -621.15633123 </i>
   </energy>
  </scstep>
  <scstep>
   <time name="diag">    0.80    0.80</time>
   <time name="diis">    2.20    2.21</time>
   <time name="orth">    0.24    0.24</time>
   <time name="total">    3.45    3.46</time>
   <dipole>
    <v name="dipole">      0.00000000       0.00000000       0.56680741 </v>
    <i name="Tr[quadrupol]"> -12696.97437685 </i>
    <i name="Echarged">      0.00000000 </i>
    <i name="Edipol_quadrupol">      0.00000000 </i>
    <i name="Eion">      0.00000000 </i>
   </dipole>
   <energy>
    <i name="e_fr_energy">   -621.20473007 </i>
    <i name="e_wo_entrp">   -621.10692062 </i>
    <i name="e_0_energy">   -621.15582534 </i>
   </energy>
  </scstep>
  <scstep>
   <time name="diag">    0.79    0.80</time>
   <time name="diis">    1.92    1.93</time>
   <time name="orth">    0.24    0.24</time>
   <time name="total">    3.17    3.18</time>
   <dipole>
    <v name="dipole">      0.00000000       0.00000000       0.56969013 </v>
    <i name="Tr[quadrupol]"> -12696.94553162 </i>
    <i name="Echarged">      0.00000000 </i>
    <i name="Edipol_quadrupol">      0.00000000 </i>
    <i name="Eion">      0.00000000 </i>
   </dipole>
   <energy>
    <i name="e_fr_energy">   -621.20464160 </i>
    <i name="e_wo_entrp">   -621.10678017 </i>
    <i name="e_0_energy">   -621.15571089 </i>
   </energy>
  </scstep>
  <scstep>
   <time name="diag">    0.79    0.80</time>
   <time name="diis">    2.06    2.07</time>
   <time name="orth">    0.24    0.24</time>
   <time name="total">    3.31    3.32</time>
   <dipole>
    <v name="dipole">      0.00000000       0.00000000       0.57308471 </v>
    <i name="Tr[quadrupol]"> -12696.90792240 </i>
    <i name="Echarged">      0.00000000 </i>
    <i name="Edipol_quadrupol">      0.00000000 </i>
    <i name="Eion">      0.00000000 </i>
   </dipole>
   <energy>
    <i name="e_fr_energy">   -621.20448463 </i>
    <i name="e_wo_entrp">   -621.10669414 </i>
    <i name="e_0_energy">   -621.15558938 </i>
   </energy>
  </scstep>
  <scstep>
   <time name="diag">    0.79    0.80</time>
   <time name="diis">    2.12    2.12</time>
   <time name="orth">    0.24    0.24</time>
   <time name="total">    3.36    3.38</time>
   <dipole>
    <v name="dipole">      0.00000000       0.00000000       0.57483782 </v>
    <i name="Tr[quadrupol]"> -12696.87256781 </i>
    <i name="Echarged">      0.00000000 </i>
    <i name="Edipol_quadrupol">      0.00000000 </i>
    <i name="Eion">      0.00000000 </i>
   </dipole>
   <energy>
    <i name="e_fr_energy">   -621.20423534 </i>
    <i name="e_wo_entrp">   -621.10666221 </i>
    <i name="e_0_energy">   -621.15544877 </i>
   </energy>
  </scstep>
  <scstep>
   <time name="diag">    0.79    0.80</time>
   <time name="diis">    1.45    1.45</time>
   <time name="orth">    0.24    0.24</time>
   <time name="total">    2.69    2.70</time>
   <dipole>
    <v name="dipole">      0.00000000       0.00000000       0.57640406 </v>
    <i name="Tr[quadrupol]"> -12696.85376039 </i>
    <i name="Echarged">      0.00000000 </i>
    <i name="Edipol_quadrupol">      0.00000000 </i>
    <i name="Eion">      0.00000000 </i>
   </dipole>
   <energy>
    <i name="e_fr_energy">   -621.20422164 </i>
    <i name="e_wo_entrp">   -621.10664868 </i>
    <i name="e_0_energy">   -621.15543516 </i>
   </energy>
  </scstep>
  <scstep>
   <time name="diag">    0.79    0.80</time>
   <time name="diis">    1.37    1.37</time>
   <time name="orth">    0.24    0.24</time>
   <time name="total">    2.62    2.62</time>
   <dipole>
    <v name="dipole">      0.00000000       0.00000000       0.57714855 </v>
    <i name="Tr[quadrupol]"> -12696.83978188 </i>
    <i name="Echarged">      0.00000000 </i>
    <i name="Edipol_quadrupol">      0.00000000 </i>
    <i name="Eion">      0.00000000 </i>
   </dipole>
   <energy>
    <i name="e_fr_energy">   -621.20419393 </i>
    <i name="e_wo_entrp">   -621.10665773 </i>
    <i name="e_0_energy">   -621.15542583 </i>
   </energy>
  </scstep>
  <scstep>
   <time name="diag">    0.80    0.80</time>
   <time name="diis">    1.58    1.58</time>
   <time name="orth">    0.24    0.24</time>
   <time name="total">    2.83    2.83</time>
   <dipole>
    <v name="dipole">      0.00000000       0.00000000       0.57841271 </v>
    <i name="Tr[quadrupol]"> -12696.81302484 </i>
    <i name="Echarged">      0.00000000 </i>
    <i name="Edipol_quadrupol">      0.00000000 </i>
    <i name="Eion">      0.00000000 </i>
   </dipole>
   <energy>
    <i name="e_fr_energy">   -621.20416140 </i>
    <i name="e_wo_entrp">   -621.10673514 </i>
    <i name="e_0_energy">   -621.15544827 </i>
   </energy>
  </scstep>
  <scstep>
   <time name="diag">    0.79    0.80</time>
   <time name="diis">    1.38    1.38</time>
   <time name="orth">    0.24    0.24</time>
   <time name="total">    2.63    2.64</time>
   <dipole>
    <v name="dipole">      0.00000000       0.00000000       0.58023920 </v>
    <i name="Tr[quadrupol]"> -12696.79224267 </i>
    <i name="Echarged">      0.00000000 </i>
    <i name="Edipol_quadrupol">      0.00000000 </i>
    <i name="Eion">      0.00000000 </i>
   </dipole>
   <energy>
    <i name="e_fr_energy">   -621.20417478 </i>
    <i name="e_wo_entrp">   -621.10676083 </i>
    <i name="e_0_energy">   -621.15546781 </i>
   </energy>
  </scstep>
  <scstep>
   <time name="diag">    0.79    0.80</time>
   <time name="diis">    1.32    1.32</time>
   <time name="orth">    0.24    0.24</time>
   <time name="total">    2.40    2.40</time>
   <dipole>
    <v name="dipole">      0.00000000       0.00000000       0.58096336 </v>
    <i name="Tr[quadrupol]"> -12696.78416588 </i>
    <i name="Echarged">      0.00000000 </i>
    <i name="Edipol_quadrupol">      0.00000000 </i>
    <i name="Eion">      0.00000000 </i>
   </dipole>
   <energy>
    <i name="alphaZ">   1735.62898443 </i>
    <i name="ewald"> 225826.72232937 </i>
    <i name="hartreedc">-271625.42476760 </i>
    <i name="XCdc">   1339.66592923 </i>
    <i name="pawpsdc">  61110.58927957 </i>
    <i name="pawaedc"> -60045.97591247 </i>
    <i name="eentropy">     -0.09740083 </i>
    <i name="bandstr">  -5268.63832287 </i>
    <i name="atom">  46306.32569913 </i>
    <i name="e_fr_energy">   -621.20418203 </i>
    <i name="e_wo_entrp">   -621.10678120 </i>
    <i name="e_0_energy">   -621.15548162 </i>
   </energy>
  </scstep>
  <structure>
   <crystal>
    <varray name="basis" >
     <v>      12.80853200       0.00000000       0.00000000 </v>
     <v>       0.00000000       6.47024300       0.00000000 </v>
     <v>       0.00000000       0.00000000      25.88097200 </v>
    </varray>
    <i name="volume">   2144.86781344 </i>
    <varray name="rec_basis" >
     <v>       0.07807296       0.00000000       0.00000000 </v>
     <v>       0.00000000       0.15455370       0.00000000 </v>
     <v>       0.00000000       0.00000000       0.03863843 </v>
    </varray>
   </crystal>
   <varray name="positions" >
    <v>       0.12500000       0.50000000       0.18750000 </v>
    <v>       0.37500000       0.50000000       0.18750000 </v>
    <v>       0.12500000       0.00000000       0.06250000 </v>
    <v>       0.37500000       0.00000000       0.06250000 </v>
    <v>       0.00000000       0.50000000       0.06250000 </v>
    <v>       0.25000000       0.50000000       0.06250000 </v>
    <v>       0.00000000       0.00000000       0.18750000 </v>
    <v>       0.25000000       0.00000000       0.18750000 </v>
    <v>       0.12211537       0.50000000       0.44067068 </v>
    <v>       0.37475107       0.50000000       0.43490483 </v>
    <v>       0.12512816       0.00000000       0.31279259 </v>
    <v>       0.37491034       0.00000000       0.31281151 </v>
    <v>       0.00217389       0.50000000       0.31392298 </v>
    <v>       0.25042695       0.50000000       0.31181039 </v>
    <v>       0.99311913       0.00000000       0.44362833 </v>
    <v>       0.24892771       0.00000000       0.44126346 </v>
    <v>       0.00000000       0.50000000       0.13961000 </v>
    <v>       0.25000000       0.50000000       0.13961000 </v>
    <v>       0.00000000       0.00000000       0.01461000 </v>
    <v>       0.25000000       0.00000000       0.01461000 </v>
    <v>       0.12500000       0.80844000       0.18750000 </v>
    <v>       0.37500000       0.80844000       0.18750000 </v>
    <v>       0.12500000       0.30844000       0.06250000 </v>
    <v>       0.37500000       0.30844000       0.06250000 </v>
    <v>       0.00000000       0.50000000       0.23539000 </v>
    <v>       0.25000000       0.50000000       0.23539000 </v>
    <v>       0.00000000       0.00000000       0.11039000 </v>
    <v>       0.25000000       0.00000000       0.11039000 </v>
    <v>       0.12500000       0.19156000       0.18750000 </v>
    <v>       0.37500000       0.19156000       0.18750000 </v>
    <v>       0.12500000       0.69156000       0.06250000 </v>
    <v>       0.37500000       0.69156000       0.06250000 </v>
    <v>       0.01730553       0.50000000       0.38745324 </v>
    <v>       0.24910958       0.50000000       0.38783744 </v>
    <v>       0.00018119       0.00000000       0.26478826 </v>
    <v>       0.24998285       0.00000000       0.26477872 </v>
    <v>       0.12362848       0.81138035       0.43597922 </v>
    <v>       0.37470215       0.80925795       0.43495848 </v>
    <v>       0.12614899       0.30747371       0.31021570 </v>
    <v>       0.37509423       0.30778101       0.31212274 </v>
    <v>       0.04162200       0.50000000       0.49688556 </v>
    <v>       0.25203467       0.50000000       0.48012919 </v>
    <v>       0.00014043       0.00000000       0.36142272 </v>
    <v>       0.24969468       0.00000000       0.36055562 </v>
    <v>       0.12362848       0.18861965       0.43597922 </v>
[...]
       <r>   -12.4566     0.0000   134.0000 </r>
       <r>   -12.3668     0.0000   134.0000 </r>
       <r>   -12.2770     0.0000   134.0000 </r>
       <r>   -12.1873     0.0000   134.0000 </r>
       <r>   -12.0975     0.0000   134.0000 </r>
       <r>   -12.0077     0.0000   134.0000 </r>
       <r>   -11.9179     0.0000   134.0000 </r>
       <r>   -11.8282     0.0000   134.0000 </r>
       <r>   -11.7384     0.0000   134.0000 </r>
       <r>   -11.6486     0.0000   134.0000 </r>
       <r>   -11.5589     0.0000   134.0000 </r>
       <r>   -11.4691     0.0000   134.0000 </r>
       <r>   -11.3793     0.0000   134.0000 </r>
       <r>   -11.2896     0.0000   134.0000 </r>
       <r>   -11.1998     0.0000   134.0000 </r>
       <r>   -11.1100     0.0000   134.0000 </r>
       <r>   -11.0203     0.0000   134.0000 </r>
       <r>   -10.9305     0.0000   134.0000 </r>
       <r>   -10.8407     0.0000   134.0000 </r>
       <r>   -10.7510     0.0000   134.0000 </r>
       <r>   -10.6612     0.0000   134.0000 </r>
       <r>   -10.5714     0.0000   134.0000 </r>
       <r>   -10.4816     0.0000   134.0000 </r>
       <r>   -10.3919     0.0000   134.0000 </r>
       <r>   -10.3021     0.0000   134.0000 </r>
       <r>   -10.2123     0.0000   134.0000 </r>
       <r>   -10.1226     0.0000   134.0000 </r>
       <r>   -10.0328     0.0000   134.0000 </r>
       <r>    -9.9430     0.0000   134.0000 </r>
       <r>    -9.8533     0.0000   134.0000 </r>
       <r>    -9.7635     0.0304   134.0027 </r>
       <r>    -9.6737     2.4983   134.2270 </r>
       <r>    -9.5840    10.4794   135.1677 </r>
       <r>    -9.4942    13.2153   136.3540 </r>
       <r>    -9.4044     5.0727   136.8094 </r>
       <r>    -9.3147    17.3316   138.3652 </r>
       <r>    -9.2249    17.2876   139.9171 </r>
       <r>    -9.1351    12.3273   141.0237 </r>
       <r>    -9.0454    30.7109   143.7806 </r>
       <r>    -8.9556    17.0898   145.3147 </r>
       <r>    -8.8658    21.6891   147.2617 </r>
       <r>    -8.7760    41.4739   150.9848 </r>
       <r>    -8.6863    41.1297   154.6769 </r>
       <r>    -8.5965    37.7196   158.0630 </r>
       <r>    -8.5067    39.1809   161.5802 </r>
       <r>    -8.4170    56.4748   166.6498 </r>
       <r>    -8.3272    71.8656   173.1011 </r>
       <r>    -8.2374    71.6946   179.5370 </r>
       <r>    -8.1477    67.3818   185.5858 </r>
       <r>    -8.0579    72.0312   192.0519 </r>
       <r>    -7.9681   120.9119   202.9060 </r>
       <r>    -7.8784   120.2599   213.7016 </r>
       <r>    -7.7886    96.4029   222.3555 </r>
       <r>    -7.6988    82.7451   229.7834 </r>
       <r>    -7.6091    71.8409   236.2324 </r>
       <r>    -7.5193    53.3346   241.0202 </r>
       <r>    -7.4295    54.8229   245.9416 </r>
       <r>    -7.3398    44.9730   249.9787 </r>
       <r>    -7.2500    51.4247   254.5951 </r>
       <r>    -7.1602    57.9066   259.7932 </r>
       <r>    -7.0704    47.1609   264.0268 </r>
       <r>    -6.9807    56.4446   269.0938 </r>
       <r>    -6.8909    59.7640   274.4587 </r>
       <r>    -6.8011    42.7230   278.2939 </r>
       <r>    -6.7114    32.3353   281.1965 </r>
       <r>    -6.6216    31.2909   284.0055 </r>
       <r>    -6.5318    51.5055   288.6291 </r>
       <r>    -6.4421    65.3663   294.4969 </r>
       <r>    -6.3523    57.2555   299.6366 </r>
       <r>    -6.2625    76.4294   306.4976 </r>
       <r>    -6.1728    73.1442   313.0636 </r>
       <r>    -6.0830    66.0052   318.9888 </r>
       <r>    -5.9932    65.6231   324.8797 </r>
       <r>    -5.9035    70.3890   331.1984 </r>
       <r>    -5.8137    84.7800   338.8090 </r>
       <r>    -5.7239    88.3855   346.7432 </r>
       <r>    -5.6341    81.0306   354.0172 </r>
       <r>    -5.5444    78.0011   361.0193 </r>
       <r>    -5.4546    73.0852   367.5800 </r>
       <r>    -5.3648    76.5539   374.4521 </r>
       <r>    -5.2751    81.8730   381.8018 </r>
       <r>    -5.1853    70.4475   388.1257 </r>
       <r>    -5.0955    68.9969   394.3195 </r>
       <r>    -5.0058    73.9492   400.9578 </r>
       <r>    -4.9160    74.2566   407.6237 </r>
       <r>    -4.8262    90.9330   415.7866 </r>
       <r>    -4.7365    54.1298   420.6458 </r>
       <r>    -4.6467    54.8032   425.5654 </r>
       <r>    -4.5569    64.1376   431.3229 </r>
       <r>    -4.4672    60.4100   436.7458 </r>
       <r>    -4.3774    68.7754   442.9197 </r>
       <r>    -4.2876    50.5743   447.4596 </r>
       <r>    -4.1979    48.4887   451.8124 </r>
       <r>    -4.1081    70.2376   458.1175 </r>
       <r>    -4.0183    61.6209   463.6491 </r>
       <r>    -3.9285    62.9838   469.3031 </r>
       <r>    -3.8388    56.0061   474.3307 </r>
       <r>    -3.7490    47.4008   478.5858 </r>
       <r>    -3.6592    57.6175   483.7580 </r>
       <r>    -3.5695    51.0897   488.3443 </r>
       <r>    -3.4797    52.7149   493.0764 </r>
       <r>    -3.3899    49.9782   497.5629 </r>
       <r>    -3.3002    58.7931   502.8407 </r>
       <r>    -3.2104    77.3556   509.7848 </r>
       <r>    -3.1206    60.5440   515.2197 </r>
       <r>    -3.0309    55.6777   520.2178 </r>
       <r>    -2.9411    53.0049   524.9760 </r>
       <r>    -2.8513    50.7452   529.5313 </r>
       <r>    -2.7616    41.8687   533.2898 </r>
       <r>    -2.6718    31.4809   536.1158 </r>
       <r>    -2.5820    33.0639   539.0839 </r>
       <r>    -2.4923    52.7509   543.8193 </r>
       <r>    -2.4025    61.0348   549.2983 </r>
       <r>    -2.3127    60.4439   554.7242 </r>
       <r>    -2.2229    96.2476   563.3642 </r>
       <r>    -2.1332   102.9831   572.6089 </r>
       <r>    -2.0434    97.4461   581.3565 </r>
       <r>    -1.9536    78.0643   588.3642 </r>
       <r>    -1.8639    87.4347   596.2131 </r>
       <r>    -1.7741    81.0671   603.4903 </r>
       <r>    -1.6843    92.7204   611.8137 </r>
       <r>    -1.5946    74.2017   618.4747 </r>
       <r>    -1.5048    84.7380   626.0815 </r>
       <r>    -1.4150    55.8294   631.0932 </r>
       <r>    -1.3253    48.6543   635.4608 </r>
       <r>    -1.2355    41.3539   639.1731 </r>
       <r>    -1.1457    52.4963   643.8856 </r>
       <r>    -1.0560    55.3915   648.8580 </r>
       <r>    -0.9662    58.5902   654.1176 </r>
       <r>    -0.8764    31.7137   656.9645 </r>
       <r>    -0.7867    56.2156   662.0109 </r>
       <r>    -0.6969    49.4426   666.4493 </r>
       <r>    -0.6071    45.9962   670.5783 </r>
       <r>    -0.5173    63.4686   676.2758 </r>
       <r>    -0.4276    69.0019   682.4700 </r>
       <r>    -0.3378    70.9218   688.8365 </r>
       <r>    -0.2480    76.6786   695.7198 </r>
       <r>    -0.1583    69.6835   701.9752 </r>
       <r>    -0.0685    77.1623   708.9020 </r>
       <r>     0.0213    69.2519   715.1186 </r>
       <r>     0.1110    63.0153   720.7754 </r>
       <r>     0.2008    44.1199   724.7360 </r>
       <r>     0.2906    36.3493   727.9990 </r>
       <r>     0.3803    21.9139   729.9662 </r>
       <r>     0.4701    13.4630   731.1747 </r>
       <r>     0.5599    12.9025   732.3330 </r>
       <r>     0.6496    26.2427   734.6887 </r>
       <r>     0.7394    13.2398   735.8773 </r>
       <r>     0.8292     8.5702   736.6466 </r>
       <r>     0.9190    13.2069   737.8322 </r>
       <r>     1.0087    27.6147   740.3111 </r>
       <r>     1.0985    32.8670   743.2615 </r>
       <r>     1.1883     8.4160   744.0170 </r>
       <r>     1.2780    20.7936   745.8836 </r>
       <r>     1.3678    23.4609   747.9897 </r>
       <r>     1.4576    35.9422   751.2162 </r>
       <r>     1.5473    23.3296   753.3104 </r>
       <r>     1.6371    23.7222   755.4399 </r>
       <r>     1.7269    37.0078   758.7621 </r>
       <r>     1.8166    17.5729   760.3396 </r>
       <r>     1.9064    31.4683   763.1644 </r>
       <r>     1.9962    49.6047   767.6174 </r>
       <r>     2.0859    36.9475   770.9341 </r>
       <r>     2.1757    36.9806   774.2538 </r>
       <r>     2.2655    37.5987   777.6290 </r>
       <r>     2.3552    34.7752   780.7507 </r>
       <r>     2.4450    36.4293   784.0209 </r>
       <r>     2.5348    40.4262   787.6499 </r>
       <r>     2.6246    38.9153   791.1432 </r>
       <r>     2.7143    25.8891   793.4673 </r>
       <r>     2.8041    33.0078   796.4303 </r>
       <r>     2.8939    31.7809   799.2833 </r>
       <r>     2.9836    49.6641   803.7415 </r>
       <r>     3.0734    40.6547   807.3910 </r>
       <r>     3.1632    44.3243   811.3700 </r>
       <r>     3.2529    35.3371   814.5421 </r>
       <r>     3.3427    15.6357   815.9457 </r>
       <r>     3.4325     0.6045   816.0000 </r>
       <r>     3.5222     0.0002   816.0000 </r>
       <r>     3.6120     0.0000   816.0000 </r>
       <r>     3.7018     0.0000   816.0000 </r>
       <r>     3.7915     0.0000   816.0000 </r>
       <r>     3.8813     0.0000   816.0000 </r>
       <r>     3.9711     0.0000   816.0000 </r>
       <r>     4.0608     0.0000   816.0000 </r>
       <r>     4.1506     0.0000   816.0000 </r>
       <r>     4.2404     0.0000   816.0000 </r>
       <r>     4.3302     0.0000   816.0000 </r>
       <r>     4.4199     0.0000   816.0000 </r>
       <r>     4.5097     0.0000   816.0000 </r>
      </set>
     </set>
    </array>
   </total>
  </dos>
 </calculation>
 <structure name="finalpos" >
  <crystal>
   <varray name="basis" >
    <v>      12.80853200       0.00000000       0.00000000 </v>
    <v>       0.00000000       6.47024300       0.00000000 </v>
    <v>       0.00000000       0.00000000      25.88097200 </v>
   </varray>
   <i name="volume">   2144.86781344 </i>
   <varray name="rec_basis" >
    <v>       0.07807296       0.00000000       0.00000000 </v>
    <v>       0.00000000       0.15455370       0.00000000 </v>
    <v>       0.00000000       0.00000000       0.03863843 </v>
   </varray>
  </crystal>
  <varray name="positions" >
   <v>       0.12500000       0.50000000       0.18750000 </v>
   <v>       0.37500000       0.50000000       0.18750000 </v>
   <v>       0.12500000       0.00000000       0.06250000 </v>
   <v>       0.37500000       0.00000000       0.06250000 </v>
   <v>       0.00000000       0.50000000       0.06250000 </v>
   <v>       0.25000000       0.50000000       0.06250000 </v>
   <v>       0.00000000       0.00000000       0.18750000 </v>
   <v>       0.25000000       0.00000000       0.18750000 </v>
   <v>       0.12203784       0.50000000       0.44032471 </v>
   <v>       0.37437160       0.50000000       0.43416614 </v>
   <v>       0.12504174      -0.00000000       0.31327690 </v>
   <v>       0.37482612      -0.00000000       0.31337077 </v>
   <v>       0.00205801       0.50000000       0.31352108 </v>
   <v>       0.25024965       0.50000000       0.31181638 </v>
   <v>       0.99232221      -0.00000000       0.44464188 </v>
   <v>       0.24821132      -0.00000000       0.44120892 </v>
   <v>       0.00000000       0.50000000       0.13961000 </v>
   <v>       0.25000000       0.50000000       0.13961000 </v>
   <v>       0.00000000       0.00000000       0.01461000 </v>
   <v>       0.25000000       0.00000000       0.01461000 </v>
   <v>       0.12500000       0.80844000       0.18750000 </v>
   <v>       0.37500000       0.80844000       0.18750000 </v>
   <v>       0.12500000       0.30844000       0.06250000 </v>
   <v>       0.37500000       0.30844000       0.06250000 </v>
   <v>       0.00000000       0.50000000       0.23539000 </v>
   <v>       0.25000000       0.50000000       0.23539000 </v>
   <v>       0.00000000       0.00000000       0.11039000 </v>
   <v>       0.25000000       0.00000000       0.11039000 </v>
   <v>       0.12500000       0.19156000       0.18750000 </v>
   <v>       0.37500000       0.19156000       0.18750000 </v>
   <v>       0.12500000       0.69156000       0.06250000 </v>
   <v>       0.37500000       0.69156000       0.06250000 </v>
   <v>       0.01892161       0.50000000       0.38721098 </v>
   <v>       0.24859272       0.50000000       0.38755634 </v>
   <v>       0.00008532      -0.00000000       0.26495702 </v>
   <v>       0.25022285      -0.00000000       0.26511909 </v>
   <v>       0.12387036       0.81080718       0.43504842 </v>
   <v>       0.37430065       0.80970936       0.43413510 </v>
   <v>       0.12609586       0.30763124       0.31021055 </v>
   <v>       0.37517997       0.30826928       0.31223603 </v>
   <v>       0.04572983       0.50000000       0.49754930 </v>
   <v>       0.25275617       0.50000000       0.47939358 </v>
   <v>       0.00005128      -0.00000000       0.36221487 </v>
   <v>       0.24955863      -0.00000000       0.36156101 </v>
   <v>       0.12387036       0.18919282       0.43504842 </v>
   <v>       0.37430065       0.19029064       0.43413510 </v>
   <v>       0.12609586       0.69236876       0.31021055 </v>
   <v>       0.37517997       0.69173072       0.31223603 </v>
   <v>       0.24929199      -0.00000000       0.50990667 </v>
   <v>       0.01101640      -0.00000000       0.51197743 </v>
   <v>       0.62500000       0.50000000       0.18750000 </v>
   <v>       0.87500000       0.50000000       0.18750000 </v>
   <v>       0.62500000       0.00000000       0.06250000 </v>
   <v>       0.87500000       0.00000000       0.06250000 </v>
   <v>       0.50000000       0.50000000       0.06250000 </v>
   <v>       0.75000000       0.50000000       0.06250000 </v>
   <v>       0.50000000       0.00000000       0.18750000 </v>
   <v>       0.75000000       0.00000000       0.18750000 </v>
   <v>       0.62707193       0.50000000       0.44121514 </v>
   <v>       0.62361389      -0.00000000       0.31250720 </v>
   <v>       0.87681373      -0.00000000       0.31297630 </v>
   <v>       0.49968254       0.50000000       0.31191467 </v>
   <v>       0.74806299       0.50000000       0.31377592 </v>
   <v>       0.50008469      -0.00000000       0.44199450 </v>
   <v>       0.75432615      -0.00000000       0.43430091 </v>
   <v>       0.50000000       0.50000000       0.13961000 </v>
   <v>       0.75000000       0.50000000       0.13961000 </v>
   <v>       0.50000000       0.00000000       0.01461000 </v>
   <v>       0.75000000       0.00000000       0.01461000 </v>
   <v>       0.62500000       0.80844000       0.18750000 </v>
   <v>       0.87500000       0.80844000       0.18750000 </v>
   <v>       0.62500000       0.30844000       0.06250000 </v>
   <v>       0.87500000       0.30844000       0.06250000 </v>
   <v>       0.50000000       0.50000000       0.23539000 </v>
   <v>       0.75000000       0.50000000       0.23539000 </v>
   <v>       0.50000000       0.00000000       0.11039000 </v>
   <v>       0.75000000       0.00000000       0.11039000 </v>
   <v>       0.62500000       0.19156000       0.18750000 </v>
   <v>       0.87500000       0.19156000       0.18750000 </v>
   <v>       0.62500000       0.69156000       0.06250000 </v>
   <v>       0.87500000       0.69156000       0.06250000 </v>
   <v>       0.50097804       0.50000000       0.38771927 </v>
   <v>       0.73121973       0.50000000       0.38783878 </v>
   <v>       0.49946377      -0.00000000       0.26483027 </v>
   <v>       0.75010545      -0.00000000       0.26478493 </v>
   <v>       0.62556760       0.81266180       0.43913527 </v>
   <v>       0.87497395       0.81549584       0.43813883 </v>
   <v>       0.62360345       0.30812805       0.31059653 </v>
   <v>       0.87565997       0.30932850       0.31392740 </v>
   <v>       0.49552135       0.50000000       0.47981546 </v>
   <v>       0.70477563       0.50000000       0.49823223 </v>
   <v>       0.50072075      -0.00000000       0.36179256 </v>
   <v>       0.75085201      -0.00000000       0.35954900 </v>
   <v>       0.62556760       0.18733820       0.43913527 </v>
   <v>       0.87497395       0.18450416       0.43813883 </v>
   <v>       0.62360345       0.69187195       0.31059653 </v>
   <v>       0.87565997       0.69067150       0.31392740 </v>
   <v>       0.49292161      -0.00000000       0.51072623 </v>
  </varray>
  <varray name="selective"  type="logical" >
   <v type="logical" >  F  F  F </v>
   <v type="logical" >  F  F  F </v>
   <v type="logical" >  F  F  F </v>
   <v type="logical" >  F  F  F </v>
   <v type="logical" >  F  F  F </v>
   <v type="logical" >  F  F  F </v>
   <v type="logical" >  F  F  F </v>
   <v type="logical" >  F  F  F </v>
   <v type="logical" >  T  T  T </v>
   <v type="logical" >  T  T  T </v>
   <v type="logical" >  T  T  T </v>
   <v type="logical" >  T  T  T </v>
   <v type="logical" >  T  T  T </v>
   <v type="logical" >  T  T  T </v>
   <v type="logical" >  T  T  T </v>
   <v type="logical" >  T  T  T </v>
   <v type="logical" >  F  F  F </v>
   <v type="logical" >  F  F  F </v>
   <v type="logical" >  F  F  F </v>
   <v type="logical" >  F  F  F </v>
   <v type="logical" >  F  F  F </v>
   <v type="logical" >  F  F  F </v>
   <v type="logical" >  F  F  F </v>
   <v type="logical" >  F  F  F </v>
   <v type="logical" >  F  F  F </v>
   <v type="logical" >  F  F  F </v>
   <v type="logical" >  F  F  F </v>
   <v type="logical" >  F  F  F </v>
   <v type="logical" >  F  F  F </v>
   <v type="logical" >  F  F  F </v>
   <v type="logical" >  F  F  F </v>
   <v type="logical" >  F  F  F </v>
   <v type="logical" >  T  T  T </v>
   <v type="logical" >  T  T  T </v>
   <v type="logical" >  T  T  T </v>
   <v type="logical" >  T  T  T </v>
   <v type="logical" >  T  T  T </v>
   <v type="logical" >  T  T  T </v>
   <v type="logical" >  T  T  T </v>
   <v type="logical" >  T  T  T </v>
   <v type="logical" >  T  T  T </v>
   <v type="logical" >  T  T  T </v>
   <v type="logical" >  T  T  T </v>
   <v type="logical" >  T  T  T </v>
   <v type="logical" >  T  T  T </v>
   <v type="logical" >  T  T  T </v>
   <v type="logical" >  T  T  T </v>
   <v type="logical" >  T  T  T </v>
   <v type="logical" >  T  T  T </v>
   <v type="logical" >  T  T  T </v>
   <v type="logical" >  F  F  F </v>
   <v type="logical" >  F  F  F </v>
   <v type="logical" >  F  F  F </v>
   <v type="logical" >  F  F  F </v>
   <v type="logical" >  F  F  F </v>
   <v type="logical" >  F  F  F </v>
   <v type="logical" >  F  F  F </v>
   <v type="logical" >  F  F  F </v>
   <v type="logical" >  T  T  T </v>
   <v type="logical" >  T  T  T </v>
   <v type="logical" >  T  T  T </v>
   <v type="logical" >  T  T  T </v>
   <v type="logical" >  T  T  T </v>
   <v type="logical" >  T  T  T </v>
   <v type="logical" >  T  T  T </v>
   <v type="logical" >  F  F  F </v>
   <v type="logical" >  F  F  F </v>
   <v type="logical" >  F  F  F </v>
   <v type="logical" >  F  F  F </v>
   <v type="logical" >  F  F  F </v>
   <v type="logical" >  F  F  F </v>
   <v type="logical" >  F  F  F </v>
   <v type="logical" >  F  F  F </v>
   <v type="logical" >  F  F  F </v>
   <v type="logical" >  F  F  F </v>
   <v type="logical" >  F  F  F </v>
   <v type="logical" >  F  F  F </v>
   <v type="logical" >  F  F  F </v>
   <v type="logical" >  F  F  F </v>
   <v type="logical" >  F  F  F </v>
   <v type="logical" >  F  F  F </v>
   <v type="logical" >  T  T  T </v>
   <v type="logical" >  T  T  T </v>
   <v type="logical" >  T  T  T </v>
   <v type="logical" >  T  T  T </v>
   <v type="logical" >  T  T  T </v>
   <v type="logical" >  T  T  T </v>
   <v type="logical" >  T  T  T </v>
   <v type="logical" >  T  T  T </v>
   <v type="logical" >  T  T  T </v>
   <v type="logical" >  T  T  T </v>
   <v type="logical" >  T  T  T </v>
   <v type="logical" >  T  T  T </v>
   <v type="logical" >  T  T  T </v>
   <v type="logical" >  T  T  T </v>
   <v type="logical" >  T  T  T </v>
   <v type="logical" >  T  T  T </v>
   <v type="logical" >  T  T  T </v>
  </varray>
  <nose>
   <v>      -3.00000000       0.00000000       0.00010000       0.00010000 </v>
  </nose>
 </structure>
</modeling>
