<?xml version="1.0" encoding="ISO-8859-1"?>
<modeling>
 <generator>
  <i name="program" type="string">vasp </i>
  <i name="version" type="string">5.4.4.18Apr17-6-g9f103f2a35  </i>
  <i name="subversion" type="string">(build Feb 25 2019 10:51:38) complex            parallel </i>
  <i name="platform" type="string">LinuxIFC </i>
  <i name="date" type="string">2023 03 28 </i>
  <i name="time" type="string">14:30:25 </i>
 </generator>
 <incar>
  <i type="string" name="PREC">normal</i>
  <i type="string" name="ALGO"> Fast</i>
  <i type="int" name="ISPIN">     2</i>
  <i type="int" name="ICHARG">     2</i>
  <i type="int" name="NELM">    60</i>
  <i type="int" name="NELMIN">     4</i>
  <i type="int" name="IBRION">     2</i>
  <i name="EDIFF">      0.00001000</i>
  <i name="EDIFFG">     -0.05000000</i>
  <i type="int" name="NSW">   500</i>
  <i type="int" name="ISIF">     2</i>
  <i name="ENCUT">    500.00000000</i>
  <v name="MAGMOM">      0.60000000      0.60000000      0.60000000      0.60000000      0.60000000      0.60000000      0.60000000      0.60000000      0.60000000      0.60000000      0.60000000      0.60000000      0.60000000      0.60000000      0.60000000      0.60000000      0.60000000      0.60000000      0.60000000      0.60000000
      0.60000000      0.60000000      0.60000000      0.60000000      0.60000000      0.60000000      0.60000000      0.60000000      0.60000000      0.60000000      0.60000000      0.60000000      0.60000000      0.60000000      0.60000000      0.60000000      0.60000000      0.60000000      0.60000000      0.60000000
      0.60000000      0.60000000      0.60000000      0.60000000      0.60000000      0.60000000      0.60000000      0.60000000      0.60000000      0.60000000      0.60000000      0.60000000      0.60000000      0.60000000      0.60000000      0.60000000      0.60000000      0.60000000      0.60000000      0.60000000
      0.60000000      0.60000000      0.60000000      0.60000000      0.60000000      0.60000000      0.60000000      0.60000000      0.60000000      0.60000000      0.60000000      0.60000000      0.60000000      0.60000000      0.60000000      0.60000000      0.60000000      0.60000000      0.60000000      0.60000000
      0.60000000      0.60000000      0.60000000      0.60000000      0.60000000      0.60000000      0.60000000      0.60000000      0.60000000      0.60000000      0.60000000      0.60000000      0.60000000      0.60000000      0.60000000      0.60000000      0.60000000      0.60000000      0.60000000</v>
  <i type="string" name="LREAL"> Auto</i>
  <i type="int" name="ISMEAR">     0</i>
  <i name="SIGMA">      0.05000000</i>
  <i type="logical" name="LWAVE"> F  </i>
  <i type="logical" name="LCHARG"> F  </i>
  <v type="int" name="KPOINT_BSE">    -1     0     0     0</v>
  <i type="int" name="NELM">    60</i>
  <i type="string" name="GGA"> Rp</i>
  <i type="logical" name="LDIPOL"> T  </i>
  <i type="int" name="IDIPOL">     3</i>
 </incar>
 <structure name="primitive_cell" >
  <crystal>
   <varray name="basis" >
    <v>      12.80853200       0.00000000       0.00000000 </v>
    <v>       0.00000000       6.47024300       0.00000000 </v>
    <v>       0.00000000       0.00000000      25.88097200 </v>
   </varray>
   <i name="volume">   2144.86781344 </i>
   <varray name="rec_basis" >
    <v>       0.07807296       0.00000000       0.00000000 </v>
    <v>       0.00000000       0.15455370       0.00000000 </v>
    <v>       0.00000000       0.00000000       0.03863843 </v>
   </varray>
  </crystal>
  <varray name="positions" >
   <v>       0.12500000      -0.50000000       0.18750000 </v>
   <v>       0.12500000      -0.19156000       0.18750000 </v>
   <v>       0.12500000       0.19156000       0.18750000 </v>
   <v>       0.00000000      -0.50000000       0.13961000 </v>
   <v>       0.25000000      -0.50000000       0.13961000 </v>
   <v>       0.00000000      -0.50000000       0.23539000 </v>
   <v>       0.25000000      -0.50000000       0.23539000 </v>
   <v>       0.37500000      -0.50000000       0.18750000 </v>
   <v>      -0.12500000      -0.50000000       0.18750000 </v>
   <v>       0.12500000       0.30844000       0.06250000 </v>
   <v>       0.12500000      -0.30844000       0.06250000 </v>
   <v>       0.12484286       0.30761721       0.31260854 </v>
   <v>       0.12484286      -0.30761721       0.31260854 </v>
   <v>       0.00000000      -0.50000000       0.06250000 </v>
   <v>       0.25000000      -0.50000000       0.06250000 </v>
   <v>       0.00000000       0.00000000       0.18750000 </v>
   <v>       0.25000000       0.00000000       0.18750000 </v>
   <v>       0.24998740      -0.50000000       0.31287485 </v>
   <v>      -0.00000500      -0.50000000       0.31291641 </v>
   <v>       0.37500000      -0.19156000       0.18750000 </v>
   <v>       0.37500000       0.19156000       0.18750000 </v>
   <v>      -0.12500000      -0.19156000       0.18750000 </v>
   <v>      -0.12500000       0.19156000       0.18750000 </v>
   <v>       0.00000000       0.00000000       0.11039000 </v>
   <v>       0.25000000       0.00000000       0.11039000 </v>
   <v>       0.24997893       0.00000000       0.26477725 </v>
   <v>      -0.00003151       0.00000000       0.26488775 </v>
   <v>       0.12500000       0.00000000       0.06250000 </v>
   <v>       0.12496465       0.00000000       0.31275262 </v>
   <v>       0.37500000       0.30844000       0.06250000 </v>
   <v>       0.37500000      -0.30844000       0.06250000 </v>
   <v>      -0.12500000       0.30844000       0.06250000 </v>
   <v>      -0.12500000      -0.30844000       0.06250000 </v>
   <v>      -0.12485889       0.30755065       0.31250920 </v>
   <v>      -0.12485889      -0.30755065       0.31250920 </v>
   <v>       0.37515432       0.30762257       0.31259072 </v>
   <v>       0.37515432      -0.30762257       0.31259072 </v>
   <v>      -0.50000000      -0.50000000       0.13961000 </v>
   <v>      -0.25000000      -0.50000000       0.13961000 </v>
   <v>      -0.50000000      -0.50000000       0.23539000 </v>
   <v>      -0.25000000      -0.50000000       0.23539000 </v>
   <v>      -0.00003397      -0.50000000       0.38948764 </v>
   <v>       0.24998985      -0.50000000       0.38955034 </v>
   <v>       0.37500000       0.00000000       0.06250000 </v>
   <v>      -0.12500000       0.00000000       0.06250000 </v>
   <v>       0.37500729       0.00000000       0.31273505 </v>
   <v>      -0.12502988       0.00000000       0.31274496 </v>
   <v>       0.00000000       0.00000000       0.01461000 </v>
   <v>       0.25000000       0.00000000       0.01461000 </v>
   <v>       0.25002890       0.00000000       0.36066012 </v>
   <v>      -0.00003525       0.00000000       0.36078397 </v>
   <v>      -0.50000000      -0.50000000       0.06250000 </v>
   <v>      -0.25000000      -0.50000000       0.06250000 </v>
   <v>      -0.50000000       0.00000000       0.18750000 </v>
   <v>      -0.25000000       0.00000000       0.18750000 </v>
   <v>      -0.24999838      -0.50000000       0.31285396 </v>
   <v>      -0.49999295      -0.50000000       0.31291603 </v>
   <v>      -0.50000000       0.00000000       0.11039000 </v>
   <v>      -0.25000000       0.00000000       0.11039000 </v>
   <v>      -0.25000802       0.00000000       0.26473736 </v>
   <v>      -0.49997628       0.00000000       0.26492013 </v>
   <v>      -0.37500000      -0.50000000       0.18750000 </v>
   <v>       0.12490517      -0.50000000       0.43799110 </v>
   <v>      -0.37500000      -0.19156000       0.18750000 </v>
   <v>      -0.37500000       0.19156000       0.18750000 </v>
   <v>       0.12506720      -0.19139036       0.43611287 </v>
   <v>       0.12506720       0.19139036       0.43611287 </v>
   <v>      -0.24997653      -0.50000000       0.38948322 </v>
   <v>      -0.49993547      -0.50000000       0.38948183 </v>
   <v>       0.37510837      -0.50000000       0.43799452 </v>
   <v>      -0.37514997       0.30755001       0.31251240 </v>
   <v>      -0.37514997      -0.30755001       0.31251240 </v>
   <v>      -0.37500000       0.30844000       0.06250000 </v>
   <v>      -0.37500000      -0.30844000       0.06250000 </v>
   <v>      -0.50000000       0.00000000       0.01461000 </v>
   <v>      -0.25000000       0.00000000       0.01461000 </v>
   <v>      -0.25000023       0.00000000       0.36061584 </v>
   <v>      -0.49999158       0.00000000       0.36073676 </v>
   <v>      -0.12513123      -0.19164109       0.43551317 </v>
   <v>      -0.12513123       0.19164109       0.43551317 </v>
   <v>       0.37498999      -0.19138737       0.43612171 </v>
   <v>       0.37498999       0.19138737       0.43612171 </v>
   <v>       0.00033619       0.00000000       0.44092226 </v>
   <v>       0.25002816       0.00000000       0.44126310 </v>
   <v>       0.24999416      -0.50000000       0.48341277 </v>
   <v>      -0.00053034      -0.50000000       0.48353628 </v>
   <v>      -0.37500000       0.00000000       0.06250000 </v>
   <v>      -0.37499369       0.00000000       0.31274275 </v>
   <v>       0.49972984       0.00000000       0.44087323 </v>
   <v>      -0.24998151       0.00000000       0.44121201 </v>
   <v>      -0.24998655      -0.50000000       0.48360547 </v>
   <v>      -0.49944821      -0.50000000       0.48351855 </v>
   <v>      -0.00037936       0.00000000      -0.48965901 </v>
   <v>       0.25011997       0.00000000      -0.48931359 </v>
   <v>      -0.37491132      -0.50000000       0.43805741 </v>
   <v>      -0.37480808      -0.19163303       0.43543176 </v>
   <v>      -0.37480808       0.19163303       0.43543176 </v>
   <v>      -0.25005584       0.00000000      -0.48957102 </v>
   <v>      -0.49928361       0.00000000      -0.48974975 </v>
  </varray>
 </structure>
 <varray name="primitive_index" >
  <v type="int" >        1 </v>
  <v type="int" >       21 </v>
  <v type="int" >       29 </v>
  <v type="int" >       17 </v>
  <v type="int" >       18 </v>
  <v type="int" >       25 </v>
  <v type="int" >       26 </v>
  <v type="int" >        2 </v>
  <v type="int" >       52 </v>
  <v type="int" >       23 </v>
  <v type="int" >       31 </v>
  <v type="int" >       39 </v>
  <v type="int" >       47 </v>
  <v type="int" >        5 </v>
  <v type="int" >        6 </v>
  <v type="int" >        7 </v>
  <v type="int" >        8 </v>
  <v type="int" >       14 </v>
  <v type="int" >       13 </v>
  <v type="int" >       22 </v>
  <v type="int" >       30 </v>
  <v type="int" >       71 </v>
  <v type="int" >       79 </v>
  <v type="int" >       27 </v>
  <v type="int" >       28 </v>
  <v type="int" >       36 </v>
  <v type="int" >       35 </v>
  <v type="int" >        3 </v>
  <v type="int" >       11 </v>
  <v type="int" >       24 </v>
  <v type="int" >       32 </v>
  <v type="int" >       73 </v>
  <v type="int" >       81 </v>
  <v type="int" >       89 </v>
  <v type="int" >       97 </v>
  <v type="int" >       40 </v>
  <v type="int" >       48 </v>
  <v type="int" >       66 </v>
  <v type="int" >       67 </v>
  <v type="int" >       74 </v>
  <v type="int" >       75 </v>
  <v type="int" >       33 </v>
  <v type="int" >       34 </v>
  <v type="int" >        4 </v>
  <v type="int" >       54 </v>
  <v type="int" >       12 </v>
  <v type="int" >       61 </v>
  <v type="int" >       19 </v>
  <v type="int" >       20 </v>
  <v type="int" >       44 </v>
  <v type="int" >       43 </v>
  <v type="int" >       55 </v>
  <v type="int" >       56 </v>
  <v type="int" >       57 </v>
  <v type="int" >       58 </v>
  <v type="int" >       63 </v>
  <v type="int" >       62 </v>
  <v type="int" >       76 </v>
  <v type="int" >       77 </v>
  <v type="int" >       85 </v>
  <v type="int" >       84 </v>
  <v type="int" >       51 </v>
  <v type="int" >        9 </v>
  <v type="int" >       70 </v>
  <v type="int" >       78 </v>
  <v type="int" >       37 </v>
  <v type="int" >       45 </v>
  <v type="int" >       83 </v>
  <v type="int" >       82 </v>
  <v type="int" >       10 </v>
  <v type="int" >       88 </v>
  <v type="int" >       96 </v>
  <v type="int" >       72 </v>
  <v type="int" >       80 </v>
  <v type="int" >       68 </v>
  <v type="int" >       69 </v>
  <v type="int" >       93 </v>
  <v type="int" >       92 </v>
  <v type="int" >       87 </v>
  <v type="int" >       95 </v>
  <v type="int" >       38 </v>
  <v type="int" >       46 </v>
  <v type="int" >       15 </v>
  <v type="int" >       16 </v>
  <v type="int" >       42 </v>
  <v type="int" >       41 </v>
  <v type="int" >       53 </v>
  <v type="int" >       60 </v>
  <v type="int" >       64 </v>
  <v type="int" >       65 </v>
  <v type="int" >       91 </v>
  <v type="int" >       90 </v>
  <v type="int" >       50 </v>
  <v type="int" >       49 </v>
  <v type="int" >       59 </v>
  <v type="int" >       86 </v>
  <v type="int" >       94 </v>
  <v type="int" >       98 </v>
  <v type="int" >       99 </v>
 </varray>
 <kpoints>
  <generation param="Gamma">
   <v type="int" name="divisions">       3        3        1 </v>
   <v name="usershift">      0.00000000       0.00000000       0.00000000 </v>
   <v name="genvec1">      0.33333333       0.00000000       0.00000000 </v>
   <v name="genvec2">      0.00000000       0.33333333       0.00000000 </v>
   <v name="genvec3">      0.00000000       0.00000000       1.00000000 </v>
   <v name="shift">      0.00000000       0.00000000       0.00000000 </v>
  </generation>
  <varray name="kpointlist" >
   <v>       0.00000000       0.00000000       0.00000000 </v>
   <v>       0.33333333       0.00000000       0.00000000 </v>
   <v>       0.00000000       0.33333333       0.00000000 </v>
   <v>       0.33333333       0.33333333       0.00000000 </v>
  </varray>
  <varray name="weights" >
   <v>       0.11111111 </v>
   <v>       0.22222222 </v>
   <v>       0.22222222 </v>
   <v>       0.44444444 </v>
  </varray>
 </kpoints>
 <parameters>
  <separator name="general" >
   <i type="string" name="SYSTEM">unknown system</i>
   <i type="logical" name="LCOMPAT"> F  </i>
  </separator>
  <separator name="electronic" >
   <i type="string" name="PREC">normal</i>
   <i name="ENMAX">    500.00000000</i>
   <i name="ENAUG">    605.39200000</i>
   <i name="EDIFF">      0.00001000</i>
   <i type="int" name="IALGO">    68</i>
   <i type="int" name="IWAVPR">    11</i>
   <i type="int" name="NBANDS">   444</i>
   <i name="NELECT">    687.00000000</i>
   <i type="int" name="TURBO">     0</i>
   <i type="int" name="IRESTART">     0</i>
   <i type="int" name="NREBOOT">     0</i>
   <i type="int" name="NMIN">     0</i>
   <i name="EREF">      0.00000000</i>
   <separator name="electronic smearing" >
    <i type="int" name="ISMEAR">     0</i>
    <i name="SIGMA">      0.05000000</i>
    <i name="KSPACING">      0.50000000</i>
    <i type="logical" name="KGAMMA"> T  </i>
   </separator>
   <separator name="electronic projectors" >
    <i type="logical" name="LREAL"> T  </i>
    <v name="ROPT">     -0.00050000     -0.00050000     -0.00050000     -0.00050000</v>
    <i type="int" name="LMAXPAW">  -100</i>
    <i type="int" name="LMAXMIX">     2</i>
    <i type="logical" name="NLSPLINE"> F  </i>
   </separator>
   <separator name="electronic startup" >
    <i type="int" name="ISTART">     0</i>
    <i type="int" name="ICHARG">     2</i>
    <i type="int" name="INIWAV">     1</i>
   </separator>
   <separator name="electronic spin" >
    <i type="int" name="ISPIN">     2</i>
    <i type="logical" name="LNONCOLLINEAR"> F  </i>
    <v name="MAGMOM">      0.60000000      0.60000000      0.60000000      0.60000000      0.60000000      0.60000000      0.60000000      0.60000000      0.60000000      0.60000000      0.60000000      0.60000000      0.60000000      0.60000000      0.60000000      0.60000000      0.60000000      0.60000000      0.60000000      0.60000000
      0.60000000      0.60000000      0.60000000      0.60000000      0.60000000      0.60000000      0.60000000      0.60000000      0.60000000      0.60000000      0.60000000      0.60000000      0.60000000      0.60000000      0.60000000      0.60000000      0.60000000      0.60000000      0.60000000      0.60000000
      0.60000000      0.60000000      0.60000000      0.60000000      0.60000000      0.60000000      0.60000000      0.60000000      0.60000000      0.60000000      0.60000000      0.60000000      0.60000000      0.60000000      0.60000000      0.60000000      0.60000000      0.60000000      0.60000000      0.60000000
      0.60000000      0.60000000      0.60000000      0.60000000      0.60000000      0.60000000      0.60000000      0.60000000      0.60000000      0.60000000      0.60000000      0.60000000      0.60000000      0.60000000      0.60000000      0.60000000      0.60000000      0.60000000      0.60000000      0.60000000
      0.60000000      0.60000000      0.60000000      0.60000000      0.60000000      0.60000000      0.60000000      0.60000000      0.60000000      0.60000000      0.60000000      0.60000000      0.60000000      0.60000000      0.60000000      0.60000000      0.60000000      0.60000000      0.60000000</v>
    <i name="NUPDOWN">     -1.00000000</i>
    <i type="logical" name="LSORBIT"> F  </i>
    <v name="SAXIS">      0.00000000      0.00000000      1.00000000</v>
    <i type="logical" name="LSPIRAL"> F  </i>
    <v name="QSPIRAL">      0.00000000      0.00000000      0.00000000</v>
    <i type="logical" name="LZEROZ"> F  </i>
   </separator>
   <separator name="electronic exchange-correlation" >
    <i type="logical" name="LASPH"> F  </i>
    <i type="logical" name="LMETAGGA"> F  </i>
   </separator>
   <separator name="electronic convergence" >
    <i type="int" name="NELM">    60</i>
    <i type="int" name="NELMDL">    -5</i>
    <i type="int" name="NELMIN">     4</i>
    <i name="ENINI">    500.00000000</i>
    <separator name="electronic convergence detail" >
     <i type="logical" name="LDIAG"> T  </i>
     <i type="logical" name="LSUBROT"> F  </i>
     <i name="WEIMIN">      0.00100000</i>
     <i name="EBREAK">      0.00000001</i>
     <i name="DEPER">      0.30000000</i>
     <i type="int" name="NRMM">     4</i>
     <i name="TIME">      0.40000000</i>
    </separator>
   </separator>
   <separator name="electronic mixer" >
    <i name="AMIX">      0.40000000</i>
    <i name="BMIX">      1.00000000</i>
    <i name="AMIN">      0.10000000</i>
    <i name="AMIX_MAG">      1.60000000</i>
    <i name="BMIX_MAG">      1.00000000</i>
    <separator name="electronic mixer details" >
     <i type="int" name="IMIX">     4</i>
     <i type="logical" name="MIXFIRST"> F  </i>
     <i type="int" name="MAXMIX">   -45</i>
     <i name="WC">    100.00000000</i>
     <i type="int" name="INIMIX">     1</i>
     <i type="int" name="MIXPRE">     1</i>
     <i type="int" name="MREMOVE">     5</i>
    </separator>
   </separator>
   <separator name="electronic dipolcorrection" >
    <i type="logical" name="LDIPOL"> T  </i>
    <i type="logical" name="LMONO"> F  </i>
    <i type="int" name="IDIPOL">     3</i>
    <i name="EPSILON">      1.00000000</i>
    <v name="DIPOL">   -100.00000000   -100.00000000   -100.00000000</v>
    <i name="EFIELD">      0.00000000</i>
   </separator>
  </separator>
  <separator name="grids" >
   <i type="int" name="NGX">    70</i>
   <i type="int" name="NGY">    36</i>
   <i type="int" name="NGZ">   144</i>
   <i type="int" name="NGXF">   140</i>
   <i type="int" name="NGYF">    72</i>
   <i type="int" name="NGZF">   288</i>
   <i type="logical" name="ADDGRID"> F  </i>
  </separator>
  <separator name="ionic" >
   <i type="int" name="NSW">   500</i>
   <i type="int" name="IBRION">     2</i>
   <i type="int" name="MDALGO">     0</i>
   <i type="int" name="ISIF">     2</i>
   <i name="PSTRESS">      0.00000000</i>
   <i name="EDIFFG">     -0.05000000</i>
   <i type="int" name="NFREE">     1</i>
   <i name="POTIM">      0.50000000</i>
   <i name="SMASS">     -3.00000000</i>
   <i name="SCALEE">      1.00000000</i>
  </separator>
  <separator name="ionic md" >
   <i name="TEBEG">      0.00010000</i>
   <i name="TEEND">      0.00010000</i>
   <i type="int" name="NBLOCK">     1</i>
   <i type="int" name="KBLOCK">   500</i>
   <i type="int" name="NPACO">   256</i>
   <i name="APACO">     16.00000000</i>
  </separator>
  <separator name="symmetry" >
   <i type="int" name="ISYM">     2</i>
   <i name="SYMPREC">      0.00001000</i>
  </separator>
  <separator name="dos" >
   <i type="int" name="LORBIT">     0</i>
   <v name="RWIGS">     -1.00000000     -1.00000000     -1.00000000     -1.00000000</v>
   <i type="int" name="NEDOS">   301</i>
   <i name="EMIN">     10.00000000</i>
   <i name="EMAX">    -10.00000000</i>
   <i name="EFERMI">      0.00000000</i>
  </separator>
  <separator name="writing" >
   <i type="int" name="NWRITE">     2</i>
   <i type="logical" name="LWAVE"> F  </i>
   <i type="logical" name="LDOWNSAMPLE"> F  </i>
   <i type="logical" name="LCHARG"> F  </i>
   <i type="logical" name="LPARD"> F  </i>
   <i type="logical" name="LVTOT"> F  </i>
   <i type="logical" name="LVHAR"> F  </i>
   <i type="logical" name="LELF"> F  </i>
   <i type="logical" name="LOPTICS"> F  </i>
   <v name="STM">      0.00000000      0.00000000      0.00000000      0.00000000      0.00000000      0.00000000      0.00000000</v>
  </separator>
  <separator name="performance" >
   <i type="int" name="NPAR">     4</i>
   <i type="int" name="NSIM">     4</i>
   <i type="int" name="NBLK">    -1</i>
   <i type="logical" name="LPLANE"> T  </i>
   <i type="logical" name="LSCALAPACK"> T  </i>
   <i type="logical" name="LSCAAWARE"> F  </i>
   <i type="logical" name="LSCALU"> F  </i>
   <i type="logical" name="LASYNC"> F  </i>
   <i type="logical" name="LORBITALREAL"> F  </i>
  </separator>
  <separator name="miscellaneous" >
   <i type="int" name="IDIOT">     3</i>
   <i type="int" name="ISPECIAL">     0</i>
   <i type="logical" name="LMUSIC"> F  </i>
   <v name="POMASS">    192.22000000     16.00000000    192.22000000     16.00000000</v>
   <v name="DARWINR">      0.00000000      0.00000000      0.00000000      0.00000000</v>
   <v name="DARWINV">      1.00000000      1.00000000      1.00000000      1.00000000</v>
   <i type="logical" name="LCORR"> T  </i>
  </separator>
  <i type="logical" name="GGA_COMPAT"> T  </i>
  <i type="logical" name="LBERRY"> F  </i>
  <i type="int" name="ICORELEVEL">     0</i>
  <i type="logical" name="LDAU"> F  </i>
  <i type="int" name="I_CONSTRAINED_M">     0</i>
  <separator name="electronic exchange-correlation" >
   <i type="string" name="GGA">RP</i>
   <i type="int" name="VOSKOWN">     0</i>
   <i type="logical" name="LHFCALC"> F  </i>
   <i type="string" name="PRECFOCK"></i>
   <i type="logical" name="LSYMGRAD"> F  </i>
   <i type="logical" name="LHFONE"> F  </i>
   <i type="logical" name="LRHFCALC"> F  </i>
   <i type="logical" name="LTHOMAS"> F  </i>
   <i type="logical" name="LMODELHF"> F  </i>
   <i name="ENCUT4O">     -1.00000000</i>
   <i type="int" name="EXXOEP">     0</i>
   <i type="int" name="FOURORBIT">     0</i>
   <i name="AEXX">      0.00000000</i>
   <i name="HFALPHA">      0.00000000</i>
   <i name="MCALPHA">      0.00000000</i>
   <i name="ALDAX">      1.00000000</i>
   <i name="AGGAX">      1.00000000</i>
   <i name="ALDAC">      1.00000000</i>
   <i name="AGGAC">      1.00000000</i>
   <i type="int" name="NKREDX">     1</i>
   <i type="int" name="NKREDY">     1</i>
   <i type="int" name="NKREDZ">     1</i>
   <i type="logical" name="SHIFTRED"> F  </i>
   <i type="logical" name="ODDONLY"> F  </i>
   <i type="logical" name="EVENONLY"> F  </i>
   <i type="int" name="LMAXFOCK">     0</i>
   <i type="int" name="NMAXFOCKAE">     0</i>
   <i type="logical" name="LFOCKAEDFT"> F  </i>
   <i name="HFSCREEN">      0.00000000</i>
   <i name="HFSCREENC">      0.00000000</i>
   <i type="int" name="NBANDSGWLOW">     0</i>
  </separator>
  <separator name="vdW DFT" >
   <i type="logical" name="LUSE_VDW"> F  </i>
   <i name="Zab_VDW">     -0.84910000</i>
   <i name="PARAM1">      0.12340000</i>
   <i name="PARAM2">      1.00000000</i>
   <i name="PARAM3">      0.00000000</i>
  </separator>
  <separator name="model GW" >
   <i type="int" name="MODEL_GW">     0</i>
   <i name="MODEL_EPS0">     12.99919887</i>
   <i name="MODEL_ALPHA">      1.00000000</i>
  </separator>
  <separator name="linear response parameters" >
   <i type="logical" name="LEPSILON"> F  </i>
   <i type="logical" name="LRPA"> F  </i>
   <i type="logical" name="LNABLA"> F  </i>
   <i type="logical" name="LVEL"> F  </i>
   <i type="int" name="KINTER">     0</i>
   <i name="CSHIFT">      0.10000000</i>
   <i name="OMEGAMAX">     -1.00000000</i>
   <i name="DEG_THRESHOLD">      0.00200000</i>
   <i name="RTIME">     -0.10000000</i>
   <i name="WPLASMAI">      0.00000000</i>
   <v name="DFIELD">      0.00000000      0.00000000      0.00000000</v>
   <v name="WPLASMA">      0.00000000      0.00000000      0.00000000      0.00000000      0.00000000      0.00000000      0.00000000      0.00000000      0.00000000</v>
  </separator>
  <separator name="orbital magnetization" >
   <i type="logical" name="NUCIND"> F  </i>
   <v name="MAGPOS">      0.00000000      0.00000000      0.00000000</v>
   <i type="logical" name="LNICSALL"> T  </i>
   <i type="logical" name="ORBITALMAG"> F  </i>
   <i type="logical" name="LMAGBLOCH"> F  </i>
   <i type="logical" name="LCHIMAG"> F  </i>
   <i type="logical" name="LGAUGE"> T  </i>
   <i type="int" name="MAGATOM">     0</i>
   <v name="MAGDIPOL">      0.00000000      0.00000000      0.00000000</v>
   <v name="AVECCONST">      0.00000000      0.00000000      0.00000000</v>
  </separator>
  <separator name="response functions" >
   <i type="logical" name="LADDER"> F  </i>
   <i type="logical" name="LRPAFORCE"> F  </i>
   <i type="logical" name="LFXC"> F  </i>
   <i type="logical" name="LHARTREE"> T  </i>
   <i type="int" name="IBSE">     0</i>
   <v type="int" name="KPOINT">    -1     0     0     0</v>
   <i type="logical" name="LTCTE"> F  </i>
   <i type="logical" name="LTETE"> F  </i>
   <i type="logical" name="LTRIPLET"> F  </i>
   <i type="logical" name="LFXCEPS"> F  </i>
   <i type="logical" name="LFXHEG"> F  </i>
   <i type="int" name="NATURALO">     2</i>
   <i type="logical" name="L2ORDER"> F  </i>
   <i type="logical" name="LMP2LT"> F  </i>
   <i type="logical" name="LUSEW"> F  </i>
   <i name="ENCUTGW">     -2.00000000</i>
   <i name="ENCUTGWSOFT">     -2.00000000</i>
   <i name="ENCUTLF">     -1.00000000</i>
   <i type="int" name="LMAXMP2">    -1</i>
   <i name="SCISSOR">      0.00000000</i>
   <i type="int" name="NOMEGA">     0</i>
   <i type="int" name="NOMEGAR">     0</i>
   <i type="int" name="NBANDSGW">    -1</i>
   <i type="int" name="NBANDSO">    -1</i>
   <i type="int" name="NBANDSV">    -1</i>
   <i type="int" name="NELM">    60</i>
   <i type="int" name="NELMHF">     1</i>
   <i type="int" name="DIM">     3</i>
   <i type="int" name="ANTIRES">     0</i>
   <i name="OMEGAMAX">    -30.00000000</i>
   <i name="OMEGAMIN">    -30.00000000</i>
   <i name="OMEGATL">   -200.00000000</i>
   <i type="int" name="OMEGAGRID">   140</i>
   <i name="CSHIFT">     -0.10000000</i>
   <i type="logical" name="SELFENERGY"> F  </i>
   <i type="logical" name="LSPECTRAL"> F  </i>
   <i type="logical" name="LSPECTRALGW"> F  </i>
   <i type="logical" name="LSINGLES"> F  </i>
   <i type="logical" name="LFERMIGW"> F  </i>
   <i type="logical" name="ODDONLYGW"> F  </i>
   <i type="logical" name="EVENONLYGW"> F  </i>
   <i type="int" name="NKREDLFX">     1</i>
   <i type="int" name="NKREDLFY">     1</i>
   <i type="int" name="NKREDLFZ">     1</i>
   <i type="int" name="MAXMEM">  2800</i>
   <i type="int" name="TELESCOPE">     0</i>
   <i type="int" name="TAUPAR">     1</i>
   <i type="int" name="OMEGAPAR">    -1</i>
   <i name="LAMBDA">      1.00000000</i>
  </separator>
  <separator name="External order field" >
   <i name="OFIELD_KAPPA">      0.00000000</i>
   <v name="OFIELD_K">      0.00000000      0.00000000      0.00000000</v>
   <i name="OFIELD_Q6_NEAR">      0.00000000</i>
   <i name="OFIELD_Q6_FAR">      0.00000000</i>
   <i name="OFIELD_A">      0.00000000</i>
  </separator>
  <separator name="solvation model" >
   <i type="logical" name="LSOL"> F  </i>
  </separator>
 </parameters>
 <atominfo>
  <atoms>      99 </atoms>
  <types>       4 </types>
  <array name="atoms" >
   <dimension dim="1">ion</dimension>
   <field type="string">element</field>
   <field type="int">atomtype</field>
   <set>
    <rc><c>Ir</c><c>   1</c></rc>
    <rc><c>Ir</c><c>   1</c></rc>
    <rc><c>Ir</c><c>   1</c></rc>
    <rc><c>Ir</c><c>   1</c></rc>
    <rc><c>Ir</c><c>   1</c></rc>
    <rc><c>Ir</c><c>   1</c></rc>
    <rc><c>Ir</c><c>   1</c></rc>
    <rc><c>Ir</c><c>   1</c></rc>
    <rc><c>Ir</c><c>   1</c></rc>
    <rc><c>Ir</c><c>   1</c></rc>
    <rc><c>Ir</c><c>   1</c></rc>
    <rc><c>Ir</c><c>   1</c></rc>
    <rc><c>Ir</c><c>   1</c></rc>
    <rc><c>Ir</c><c>   1</c></rc>
    <rc><c>Ir</c><c>   1</c></rc>
    <rc><c>Ir</c><c>   1</c></rc>
    <rc><c>O </c><c>   2</c></rc>
    <rc><c>O </c><c>   2</c></rc>
    <rc><c>O </c><c>   2</c></rc>
    <rc><c>O </c><c>   2</c></rc>
    <rc><c>O </c><c>   2</c></rc>
    <rc><c>O </c><c>   2</c></rc>
    <rc><c>O </c><c>   2</c></rc>
    <rc><c>O </c><c>   2</c></rc>
    <rc><c>O </c><c>   2</c></rc>
    <rc><c>O </c><c>   2</c></rc>
    <rc><c>O </c><c>   2</c></rc>
    <rc><c>O </c><c>   2</c></rc>
    <rc><c>O </c><c>   2</c></rc>
    <rc><c>O </c><c>   2</c></rc>
    <rc><c>O </c><c>   2</c></rc>
    <rc><c>O </c><c>   2</c></rc>
    <rc><c>O </c><c>   2</c></rc>
    <rc><c>O </c><c>   2</c></rc>
    <rc><c>O </c><c>   2</c></rc>
    <rc><c>O </c><c>   2</c></rc>
    <rc><c>O </c><c>   2</c></rc>
    <rc><c>O </c><c>   2</c></rc>
    <rc><c>O </c><c>   2</c></rc>
    <rc><c>O </c><c>   2</c></rc>
    <rc><c>O </c><c>   2</c></rc>
    <rc><c>O </c><c>   2</c></rc>
    <rc><c>O </c><c>   2</c></rc>
    <rc><c>O </c><c>   2</c></rc>
    <rc><c>O </c><c>   2</c></rc>
    <rc><c>O </c><c>   2</c></rc>
    <rc><c>O </c><c>   2</c></rc>
    <rc><c>O </c><c>   2</c></rc>
    <rc><c>O </c><c>   2</c></rc>
    <rc><c>O </c><c>   2</c></rc>
    <rc><c>Ir</c><c>   3</c></rc>
    <rc><c>Ir</c><c>   3</c></rc>
    <rc><c>Ir</c><c>   3</c></rc>
    <rc><c>Ir</c><c>   3</c></rc>
    <rc><c>Ir</c><c>   3</c></rc>
    <rc><c>Ir</c><c>   3</c></rc>
    <rc><c>Ir</c><c>   3</c></rc>
    <rc><c>Ir</c><c>   3</c></rc>
    <rc><c>Ir</c><c>   3</c></rc>
    <rc><c>Ir</c><c>   3</c></rc>
    <rc><c>Ir</c><c>   3</c></rc>
    <rc><c>Ir</c><c>   3</c></rc>
    <rc><c>Ir</c><c>   3</c></rc>
    <rc><c>Ir</c><c>   3</c></rc>
    <rc><c>Ir</c><c>   3</c></rc>
    <rc><c>O </c><c>   4</c></rc>
    <rc><c>O </c><c>   4</c></rc>
    <rc><c>O </c><c>   4</c></rc>
    <rc><c>O </c><c>   4</c></rc>
    <rc><c>O </c><c>   4</c></rc>
    <rc><c>O </c><c>   4</c></rc>
    <rc><c>O </c><c>   4</c></rc>
    <rc><c>O </c><c>   4</c></rc>
    <rc><c>O </c><c>   4</c></rc>
    <rc><c>O </c><c>   4</c></rc>
    <rc><c>O </c><c>   4</c></rc>
    <rc><c>O </c><c>   4</c></rc>
    <rc><c>O </c><c>   4</c></rc>
    <rc><c>O </c><c>   4</c></rc>
    <rc><c>O </c><c>   4</c></rc>
    <rc><c>O </c><c>   4</c></rc>
    <rc><c>O </c><c>   4</c></rc>
    <rc><c>O </c><c>   4</c></rc>
    <rc><c>O </c><c>   4</c></rc>
    <rc><c>O </c><c>   4</c></rc>
    <rc><c>O </c><c>   4</c></rc>
    <rc><c>O </c><c>   4</c></rc>
    <rc><c>O </c><c>   4</c></rc>
    <rc><c>O </c><c>   4</c></rc>
    <rc><c>O </c><c>   4</c></rc>
    <rc><c>O </c><c>   4</c></rc>
    <rc><c>O </c><c>   4</c></rc>
    <rc><c>O </c><c>   4</c></rc>
    <rc><c>O </c><c>   4</c></rc>
    <rc><c>O </c><c>   4</c></rc>
    <rc><c>O </c><c>   4</c></rc>
    <rc><c>O </c><c>   4</c></rc>
    <rc><c>O </c><c>   4</c></rc>
    <rc><c>O </c><c>   4</c></rc>
   </set>
  </array>
  <array name="atomtypes" >
   <dimension dim="1">type</dimension>
   <field type="int">atomspertype</field>
   <field type="string">element</field>
   <field>mass</field>
   <field>valence</field>
   <field type="string">pseudopotential</field>
   <set>
    <rc><c>  16</c><c>Ir</c><c>    192.22000000</c><c>      9.00000000</c><c>  PAW_PBE Ir 06Sep2000                  </c></rc>
    <rc><c>  34</c><c>O </c><c>     16.00000000</c><c>      6.00000000</c><c>  PAW_PBE O 08Apr2002                   </c></rc>
    <rc><c>  15</c><c>Ir</c><c>    192.22000000</c><c>      9.00000000</c><c>  PAW_PBE Ir 06Sep2000                  </c></rc>
    <rc><c>  34</c><c>O </c><c>     16.00000000</c><c>      6.00000000</c><c>  PAW_PBE O 08Apr2002                   </c></rc>
   </set>
  </array>
 </atominfo>
 <structure name="initialpos" >
  <crystal>
   <varray name="basis" >
    <v>      12.80853200       0.00000000       0.00000000 </v>
    <v>       0.00000000       6.47024300       0.00000000 </v>
    <v>       0.00000000       0.00000000      25.88097200 </v>
   </varray>
   <i name="volume">   2144.86781344 </i>
   <varray name="rec_basis" >
    <v>       0.07807296       0.00000000       0.00000000 </v>
    <v>       0.00000000       0.15455370       0.00000000 </v>
    <v>       0.00000000       0.00000000       0.03863843 </v>
   </varray>
  </crystal>
  <varray name="positions" >
   <v>       0.12500000       0.50000000       0.18750000 </v>
   <v>       0.37500000       0.50000000       0.18750000 </v>
   <v>       0.12500000       0.00000000       0.06250000 </v>
   <v>       0.37500000       0.00000000       0.06250000 </v>
   <v>       0.00000000       0.50000000       0.06250000 </v>
   <v>       0.25000000       0.50000000       0.06250000 </v>
   <v>       0.00000000       0.00000000       0.18750000 </v>
   <v>       0.25000000       0.00000000       0.18750000 </v>
   <v>       0.12490517       0.50000000       0.43799110 </v>
   <v>       0.37510837       0.50000000       0.43799452 </v>
   <v>       0.12496465       0.00000000       0.31275262 </v>
   <v>       0.37500729       0.00000000       0.31273505 </v>
   <v>       0.99999500       0.50000000       0.31291641 </v>
   <v>       0.24998740       0.50000000       0.31287485 </v>
   <v>       0.00033619       0.00000000       0.44092226 </v>
   <v>       0.25002816       0.00000000       0.44126310 </v>
   <v>       0.00000000       0.50000000       0.13961000 </v>
   <v>       0.25000000       0.50000000       0.13961000 </v>
   <v>       0.00000000       0.00000000       0.01461000 </v>
   <v>       0.25000000       0.00000000       0.01461000 </v>
   <v>       0.12500000       0.80844000       0.18750000 </v>
   <v>       0.37500000       0.80844000       0.18750000 </v>
   <v>       0.12500000       0.30844000       0.06250000 </v>
   <v>       0.37500000       0.30844000       0.06250000 </v>
   <v>       0.00000000       0.50000000       0.23539000 </v>
   <v>       0.25000000       0.50000000       0.23539000 </v>
   <v>       0.00000000       0.00000000       0.11039000 </v>
   <v>       0.25000000       0.00000000       0.11039000 </v>
   <v>       0.12500000       0.19156000       0.18750000 </v>
   <v>       0.37500000       0.19156000       0.18750000 </v>
   <v>       0.12500000       0.69156000       0.06250000 </v>
   <v>       0.37500000       0.69156000       0.06250000 </v>
   <v>       0.99996603       0.50000000       0.38948764 </v>
   <v>       0.24998985       0.50000000       0.38955034 </v>
   <v>       0.99996849       0.00000000       0.26488775 </v>
   <v>       0.24997893       0.00000000       0.26477725 </v>
   <v>       0.12506720       0.80860964       0.43611287 </v>
   <v>       0.37498999       0.80861263       0.43612171 </v>
   <v>       0.12484286       0.30761721       0.31260854 </v>
   <v>       0.37515432       0.30762257       0.31259072 </v>
   <v>       0.99946966       0.50000000       0.48353628 </v>
   <v>       0.24999416       0.50000000       0.48341277 </v>
   <v>       0.99996475       0.00000000       0.36078397 </v>
   <v>       0.25002890       0.00000000       0.36066012 </v>
   <v>       0.12506720       0.19139036       0.43611287 </v>
   <v>       0.37498999       0.19138737       0.43612171 </v>
   <v>       0.12484286       0.69238279       0.31260854 </v>
   <v>       0.37515432       0.69237743       0.31259072 </v>
   <v>       0.25011997       0.00000000       0.51068641 </v>
   <v>       0.99962064       0.00000000       0.51034099 </v>
   <v>       0.62500000       0.50000000       0.18750000 </v>
   <v>       0.87500000       0.50000000       0.18750000 </v>
   <v>       0.62500000       0.00000000       0.06250000 </v>
   <v>       0.87500000       0.00000000       0.06250000 </v>
   <v>       0.50000000       0.50000000       0.06250000 </v>
   <v>       0.75000000       0.50000000       0.06250000 </v>
   <v>       0.50000000       0.00000000       0.18750000 </v>
   <v>       0.75000000       0.00000000       0.18750000 </v>
   <v>       0.62508868       0.50000000       0.43805741 </v>
   <v>       0.62500631       0.00000000       0.31274275 </v>
   <v>       0.87497012       0.00000000       0.31274496 </v>
   <v>       0.50000705       0.50000000       0.31291603 </v>
   <v>       0.75000162       0.50000000       0.31285396 </v>
   <v>       0.49972984       0.00000000       0.44087323 </v>
   <v>       0.75001849       0.00000000       0.44121201 </v>
   <v>       0.50000000       0.50000000       0.13961000 </v>
   <v>       0.75000000       0.50000000       0.13961000 </v>
   <v>       0.50000000       0.00000000       0.01461000 </v>
   <v>       0.75000000       0.00000000       0.01461000 </v>
   <v>       0.62500000       0.80844000       0.18750000 </v>
   <v>       0.87500000       0.80844000       0.18750000 </v>
   <v>       0.62500000       0.30844000       0.06250000 </v>
   <v>       0.87500000       0.30844000       0.06250000 </v>
   <v>       0.50000000       0.50000000       0.23539000 </v>
   <v>       0.75000000       0.50000000       0.23539000 </v>
   <v>       0.50000000       0.00000000       0.11039000 </v>
   <v>       0.75000000       0.00000000       0.11039000 </v>
   <v>       0.62500000       0.19156000       0.18750000 </v>
   <v>       0.87500000       0.19156000       0.18750000 </v>
   <v>       0.62500000       0.69156000       0.06250000 </v>
   <v>       0.87500000       0.69156000       0.06250000 </v>
   <v>       0.50006453       0.50000000       0.38948183 </v>
   <v>       0.75002347       0.50000000       0.38948322 </v>
   <v>       0.50002372       0.00000000       0.26492013 </v>
   <v>       0.74999198       0.00000000       0.26473736 </v>
   <v>       0.62519192       0.80836697       0.43543176 </v>
   <v>       0.87486877       0.80835891       0.43551317 </v>
   <v>       0.62485003       0.30755001       0.31251240 </v>
   <v>       0.87514111       0.30755065       0.31250920 </v>
   <v>       0.50055179       0.50000000       0.48351855 </v>
   <v>       0.75001345       0.50000000       0.48360547 </v>
   <v>       0.50000842       0.00000000       0.36073676 </v>
   <v>       0.74999977       0.00000000       0.36061584 </v>
   <v>       0.62519192       0.19163303       0.43543176 </v>
   <v>       0.87486877       0.19164109       0.43551317 </v>
   <v>       0.62485003       0.69244999       0.31251240 </v>
   <v>       0.87514111       0.69244935       0.31250920 </v>
   <v>       0.74994416       0.00000000       0.51042898 </v>
   <v>       0.50071639       0.00000000       0.51025025 </v>
  </varray>
  <varray name="selective"  type="logical" >
   <v type="logical" >  F  F  F </v>
   <v type="logical" >  F  F  F </v>
   <v type="logical" >  F  F  F </v>
   <v type="logical" >  F  F  F </v>
   <v type="logical" >  F  F  F </v>
   <v type="logical" >  F  F  F </v>
   <v type="logical" >  F  F  F </v>
   <v type="logical" >  F  F  F </v>
   <v type="logical" >  T  T  T </v>
   <v type="logical" >  T  T  T </v>
   <v type="logical" >  T  T  T </v>
   <v type="logical" >  T  T  T </v>
   <v type="logical" >  T  T  T </v>
   <v type="logical" >  T  T  T </v>
   <v type="logical" >  T  T  T </v>
   <v type="logical" >  T  T  T </v>
   <v type="logical" >  F  F  F </v>
   <v type="logical" >  F  F  F </v>
   <v type="logical" >  F  F  F </v>
   <v type="logical" >  F  F  F </v>
   <v type="logical" >  F  F  F </v>
   <v type="logical" >  F  F  F </v>
   <v type="logical" >  F  F  F </v>
   <v type="logical" >  F  F  F </v>
   <v type="logical" >  F  F  F </v>
   <v type="logical" >  F  F  F </v>
   <v type="logical" >  F  F  F </v>
   <v type="logical" >  F  F  F </v>
   <v type="logical" >  F  F  F </v>
   <v type="logical" >  F  F  F </v>
   <v type="logical" >  F  F  F </v>
   <v type="logical" >  F  F  F </v>
   <v type="logical" >  T  T  T </v>
   <v type="logical" >  T  T  T </v>
   <v type="logical" >  T  T  T </v>
   <v type="logical" >  T  T  T </v>
   <v type="logical" >  T  T  T </v>
   <v type="logical" >  T  T  T </v>
   <v type="logical" >  T  T  T </v>
   <v type="logical" >  T  T  T </v>
   <v type="logical" >  T  T  T </v>
   <v type="logical" >  T  T  T </v>
   <v type="logical" >  T  T  T </v>
   <v type="logical" >  T  T  T </v>
   <v type="logical" >  T  T  T </v>
   <v type="logical" >  T  T  T </v>
   <v type="logical" >  T  T  T </v>
   <v type="logical" >  T  T  T </v>
   <v type="logical" >  T  T  T </v>
   <v type="logical" >  T  T  T </v>
   <v type="logical" >  F  F  F </v>
   <v type="logical" >  F  F  F </v>
   <v type="logical" >  F  F  F </v>
   <v type="logical" >  F  F  F </v>
   <v type="logical" >  F  F  F </v>
   <v type="logical" >  F  F  F </v>
   <v type="logical" >  F  F  F </v>
   <v type="logical" >  F  F  F </v>
   <v type="logical" >  T  T  T </v>
   <v type="logical" >  T  T  T </v>
   <v type="logical" >  T  T  T </v>
   <v type="logical" >  T  T  T </v>
   <v type="logical" >  T  T  T </v>
   <v type="logical" >  T  T  T </v>
   <v type="logical" >  T  T  T </v>
   <v type="logical" >  F  F  F </v>
   <v type="logical" >  F  F  F </v>
   <v type="logical" >  F  F  F </v>
   <v type="logical" >  F  F  F </v>
   <v type="logical" >  F  F  F </v>
   <v type="logical" >  F  F  F </v>
   <v type="logical" >  F  F  F </v>
   <v type="logical" >  F  F  F </v>
   <v type="logical" >  F  F  F </v>
   <v type="logical" >  F  F  F </v>
   <v type="logical" >  F  F  F </v>
   <v type="logical" >  F  F  F </v>
   <v type="logical" >  F  F  F </v>
   <v type="logical" >  F  F  F </v>
   <v type="logical" >  F  F  F </v>
   <v type="logical" >  F  F  F </v>
   <v type="logical" >  T  T  T </v>
   <v type="logical" >  T  T  T </v>
   <v type="logical" >  T  T  T </v>
   <v type="logical" >  T  T  T </v>
   <v type="logical" >  T  T  T </v>
   <v type="logical" >  T  T  T </v>
   <v type="logical" >  T  T  T </v>
   <v type="logical" >  T  T  T </v>
   <v type="logical" >  T  T  T </v>
   <v type="logical" >  T  T  T </v>
   <v type="logical" >  T  T  T </v>
   <v type="logical" >  T  T  T </v>
   <v type="logical" >  T  T  T </v>
   <v type="logical" >  T  T  T </v>
   <v type="logical" >  T  T  T </v>
   <v type="logical" >  T  T  T </v>
   <v type="logical" >  T  T  T </v>
   <v type="logical" >  T  T  T </v>
  </varray>
  <nose>
   <v>      -3.00000000       0.00000000       0.00010000       0.00010000 </v>
  </nose>
 </structure>
 <calculation>
  <scstep>
   <time name="dav">   15.21   15.28</time>
   <time name="total">   15.35   15.42</time>
   <dipole>
    <v name="dipole">      0.00000000       0.00000000      -0.00009925 </v>
    <i name="Tr[quadrupol]"> -12753.14843910 </i>
    <i name="Echarged">      0.00000000 </i>
    <i name="Edipol_quadrupol">      0.00000000 </i>
    <i name="Eion">      0.00000000 </i>
   </dipole>
   <energy>
    <i name="alphaZ">   1762.37901075 </i>
    <i name="ewald"> 226018.59299263 </i>
    <i name="hartreedc">-272247.38998931 </i>
    <i name="XCdc">   1325.18299739 </i>
    <i name="pawpsdc">  40697.07978379 </i>
    <i name="pawaedc"> -39522.11208057 </i>
    <i name="eentropy">     -0.04875865 </i>
    <i name="bandstr">   2806.91750754 </i>
    <i name="atom">  46738.62169917 </i>
    <i name="e_fr_energy">   7579.22316275 </i>
    <i name="e_wo_entrp">   7579.27192139 </i>
    <i name="e_0_energy">   7579.24754207 </i>
   </energy>
  </scstep>
  <scstep>
   <time name="dav">   15.82   15.88</time>
   <time name="total">   15.83   15.88</time>
   <dipole>
    <v name="dipole">      0.00000000       0.00000000      -0.00009925 </v>
    <i name="Tr[quadrupol]"> -12753.14843910 </i>
    <i name="Echarged">      0.00000000 </i>
    <i name="Edipol_quadrupol">      0.00000000 </i>
    <i name="Eion">      0.00000000 </i>
   </dipole>
   <energy>
    <i name="e_fr_energy">    510.09886192 </i>
    <i name="e_wo_entrp">    510.14296603 </i>
    <i name="e_0_energy">    510.12091398 </i>
   </energy>
  </scstep>
  <scstep>
   <time name="dav">   18.26   18.32</time>
   <time name="total">   18.27   18.32</time>
   <dipole>
    <v name="dipole">      0.00000000       0.00000000      -0.00009925 </v>
    <i name="Tr[quadrupol]"> -12753.14843910 </i>
    <i name="Echarged">      0.00000000 </i>
    <i name="Edipol_quadrupol">      0.00000000 </i>
    <i name="Eion">      0.00000000 </i>
   </dipole>
   <energy>
    <i name="e_fr_energy">   -701.81995505 </i>
    <i name="e_wo_entrp">   -701.74474351 </i>
    <i name="e_0_energy">   -701.78234928 </i>
   </energy>
  </scstep>
  <scstep>
   <time name="dav">   18.24   18.29</time>
   <time name="total">   18.24   18.30</time>
   <dipole>
    <v name="dipole">      0.00000000       0.00000000      -0.00009925 </v>
    <i name="Tr[quadrupol]"> -12753.14843910 </i>
    <i name="Echarged">      0.00000000 </i>
    <i name="Edipol_quadrupol">      0.00000000 </i>
    <i name="Eion">      0.00000000 </i>
   </dipole>
   <energy>
    <i name="e_fr_energy">   -771.27063146 </i>
    <i name="e_wo_entrp">   -771.19323131 </i>
    <i name="e_0_energy">   -771.23193139 </i>
   </energy>
  </scstep>
  <scstep>
   <time name="dav">   18.43   18.48</time>
   <time name="total">   18.82   18.88</time>
   <dipole>
    <v name="dipole">      0.00000000       0.00000000      -0.00009925 </v>
    <i name="Tr[quadrupol]"> -12753.14843910 </i>
    <i name="Echarged">      0.00000000 </i>
    <i name="Edipol_quadrupol">      0.00000000 </i>
    <i name="Eion">      0.00000000 </i>
   </dipole>
   <energy>
    <i name="e_fr_energy">   -773.35556309 </i>
    <i name="e_wo_entrp">   -773.27773243 </i>
    <i name="e_0_energy">   -773.31664776 </i>
   </energy>
  </scstep>
  <scstep>
   <time name="diag">    2.22    2.23</time>
   <time name="diis">    5.77    5.78</time>
   <time name="orth">    0.66    0.66</time>
   <time name="total">    9.17    9.21</time>
   <dipole>
    <v name="dipole">      0.00000000       0.00000000       3.85478467 </v>
    <i name="Tr[quadrupol]"> -12733.76899244 </i>
    <i name="Echarged">      0.00000000 </i>
    <i name="Edipol_quadrupol">      0.00000000 </i>
    <i name="Eion">      0.00000000 </i>
   </dipole>
   <energy>
    <i name="e_fr_energy">   -844.98258080 </i>
    <i name="e_wo_entrp">   -844.92403835 </i>
    <i name="e_0_energy">   -844.95330957 </i>
   </energy>
  </scstep>
  <scstep>
   <time name="diag">    2.22    2.23</time>
   <time name="diis">    5.88    5.90</time>
   <time name="orth">    0.66    0.66</time>
   <time name="total">    9.28    9.31</time>
   <dipole>
    <v name="dipole">      0.00000000       0.00000000      -5.07736105 </v>
    <i name="Tr[quadrupol]"> -12747.46785275 </i>
    <i name="Echarged">      0.00000000 </i>
    <i name="Edipol_quadrupol">      0.00000000 </i>
    <i name="Eion">      0.00000000 </i>
   </dipole>
   <energy>
    <i name="e_fr_energy">  -1056.88487874 </i>
    <i name="e_wo_entrp">  -1056.82177111 </i>
    <i name="e_0_energy">  -1056.85332493 </i>
   </energy>
  </scstep>
  <scstep>
   <time name="diag">    2.26    2.27</time>
   <time name="diis">    6.26    6.28</time>
   <time name="orth">    0.66    0.66</time>
   <time name="total">    9.71    9.73</time>
   <dipole>
    <v name="dipole">      0.00000000       0.00000000      -5.79582810 </v>
    <i name="Tr[quadrupol]"> -12746.92114772 </i>
    <i name="Echarged">      0.00000000 </i>
    <i name="Edipol_quadrupol">      0.00000000 </i>
    <i name="Eion">      0.00000000 </i>
   </dipole>
   <energy>
    <i name="e_fr_energy">  -1174.79644330 </i>
    <i name="e_wo_entrp">  -1174.74594166 </i>
    <i name="e_0_energy">  -1174.77119248 </i>
   </energy>
  </scstep>
  <scstep>
   <time name="diag">    2.22    2.23</time>
   <time name="diis">    5.84    5.86</time>
   <time name="orth">    0.66    0.66</time>
   <time name="total">    9.24    9.27</time>
   <dipole>
    <v name="dipole">      0.00000000       0.00000000      -6.47192507 </v>
    <i name="Tr[quadrupol]"> -12739.82994313 </i>
    <i name="Echarged">      0.00000000 </i>
    <i name="Edipol_quadrupol">      0.00000000 </i>
    <i name="Eion">      0.00000000 </i>
   </dipole>
   <energy>
    <i name="e_fr_energy">  -1294.66315821 </i>
    <i name="e_wo_entrp">  -1294.63999074 </i>
    <i name="e_0_energy">  -1294.65157447 </i>
   </energy>
  </scstep>
  <scstep>
   <time name="diag">    2.22    2.23</time>
   <time name="diis">    5.90    5.94</time>
   <time name="orth">    0.66    0.66</time>
   <time name="total">    9.29    9.34</time>
   <dipole>
    <v name="dipole">      0.00000000       0.00000000       4.03883103 </v>
    <i name="Tr[quadrupol]"> -12772.48629784 </i>
    <i name="Echarged">      0.00000000 </i>
    <i name="Edipol_quadrupol">      0.00000000 </i>
    <i name="Eion">      0.00000000 </i>
   </dipole>
   <energy>
    <i name="e_fr_energy">  -1098.40364514 </i>
    <i name="e_wo_entrp">  -1098.34675506 </i>
    <i name="e_0_energy">  -1098.37520010 </i>
   </energy>
  </scstep>
  <scstep>
   <time name="diag">    2.26    2.27</time>
   <time name="diis">    6.17    6.19</time>
   <time name="orth">    0.66    0.66</time>
   <time name="total">    9.61    9.64</time>
   <dipole>
    <v name="dipole">      0.00000000       0.00000000       1.24580283 </v>
    <i name="Tr[quadrupol]"> -12809.38059227 </i>
    <i name="Echarged">      0.00000000 </i>
    <i name="Edipol_quadrupol">      0.00000000 </i>
    <i name="Eion">      0.00000000 </i>
   </dipole>
   <energy>
    <i name="e_fr_energy">  -1148.10030826 </i>
    <i name="e_wo_entrp">  -1148.06078193 </i>
    <i name="e_0_energy">  -1148.08054509 </i>
   </energy>
  </scstep>
  <scstep>
   <time name="diag">    2.23    2.23</time>
   <time name="diis">    6.39    6.41</time>
   <time name="orth">    0.66    0.66</time>
   <time name="total">    9.79    9.83</time>
   <dipole>
    <v name="dipole">      0.00000000       0.00000000       0.56263126 </v>
    <i name="Tr[quadrupol]"> -12820.55049032 </i>
    <i name="Echarged">      0.00000000 </i>
    <i name="Edipol_quadrupol">      0.00000000 </i>
    <i name="Eion">      0.00000000 </i>
   </dipole>
   <energy>
    <i name="e_fr_energy">  -1186.19717259 </i>
    <i name="e_wo_entrp">  -1186.15630221 </i>
    <i name="e_0_energy">  -1186.17673740 </i>
   </energy>
  </scstep>
  <scstep>
   <time name="diag">    2.22    2.22</time>
   <time name="diis">    5.94    5.96</time>
   <time name="orth">    0.66    0.66</time>
   <time name="total">    9.33    9.36</time>
   <dipole>
    <v name="dipole">      0.00000000       0.00000000      -0.56296698 </v>
    <i name="Tr[quadrupol]"> -12817.99048950 </i>
    <i name="Echarged">      0.00000000 </i>
    <i name="Edipol_quadrupol">      0.00000000 </i>
    <i name="Eion">      0.00000000 </i>
   </dipole>
   <energy>
    <i name="e_fr_energy">   -994.83541634 </i>
    <i name="e_wo_entrp">   -994.79160939 </i>
    <i name="e_0_energy">   -994.81351286 </i>
   </energy>
  </scstep>
  <scstep>
   <time name="diag">    2.22    2.23</time>
   <time name="diis">    5.86    5.88</time>
   <time name="orth">    0.66    0.66</time>
   <time name="total">    9.26    9.29</time>
   <dipole>
    <v name="dipole">      0.00000000       0.00000000      -0.02379938 </v>
    <i name="Tr[quadrupol]"> -12804.55975383 </i>
    <i name="Echarged">      0.00000000 </i>
    <i name="Edipol_quadrupol">      0.00000000 </i>
    <i name="Eion">      0.00000000 </i>
   </dipole>
   <energy>
    <i name="e_fr_energy">   -941.17307226 </i>
    <i name="e_wo_entrp">   -941.10378355 </i>
    <i name="e_0_energy">   -941.13842791 </i>
   </energy>
  </scstep>
  <scstep>
   <time name="diag">    2.22    2.23</time>
   <time name="diis">    5.84    5.86</time>
   <time name="orth">    0.66    0.66</time>
   <time name="total">    9.24    9.27</time>
   <dipole>
    <v name="dipole">      0.00000000       0.00000000      -2.54935430 </v>
    <i name="Tr[quadrupol]"> -12807.98429226 </i>
    <i name="Echarged">      0.00000000 </i>
    <i name="Edipol_quadrupol">      0.00000000 </i>
    <i name="Eion">      0.00000000 </i>
   </dipole>
   <energy>
    <i name="e_fr_energy">   -694.33388709 </i>
    <i name="e_wo_entrp">   -694.26802048 </i>
    <i name="e_0_energy">   -694.30095379 </i>
   </energy>
  </scstep>
  <scstep>
   <time name="diag">    2.22    2.23</time>
   <time name="diis">    5.82    5.84</time>
   <time name="orth">    0.66    0.66</time>
   <time name="total">    9.21    9.24</time>
   <dipole>
    <v name="dipole">      0.00000000       0.00000000      -2.54890958 </v>
    <i name="Tr[quadrupol]"> -12790.09468700 </i>
    <i name="Echarged">      0.00000000 </i>
    <i name="Edipol_quadrupol">      0.00000000 </i>
    <i name="Eion">      0.00000000 </i>
   </dipole>
   <energy>
    <i name="e_fr_energy">   -631.34270611 </i>
    <i name="e_wo_entrp">   -631.25429227 </i>
    <i name="e_0_energy">   -631.29849919 </i>
   </energy>
  </scstep>
  <scstep>
   <time name="diag">    2.23    2.23</time>
   <time name="diis">    6.07    6.08</time>
   <time name="orth">    0.66    0.66</time>
   <time name="total">    9.47    9.50</time>
   <dipole>
    <v name="dipole">      0.00000000       0.00000000      -1.96811878 </v>
    <i name="Tr[quadrupol]"> -12786.88575982 </i>
    <i name="Echarged">      0.00000000 </i>
    <i name="Edipol_quadrupol">      0.00000000 </i>
    <i name="Eion">      0.00000000 </i>
   </dipole>
   <energy>
    <i name="e_fr_energy">   -635.73812728 </i>
    <i name="e_wo_entrp">   -635.66022353 </i>
    <i name="e_0_energy">   -635.69917540 </i>
   </energy>
  </scstep>
  <scstep>
   <time name="diag">    2.22    2.23</time>
   <time name="diis">    6.22    6.24</time>
   <time name="orth">    0.66    0.66</time>
   <time name="total">    9.62    9.65</time>
   <dipole>
    <v name="dipole">      0.00000000       0.00000000      -2.00751224 </v>
    <i name="Tr[quadrupol]"> -12786.70055145 </i>
    <i name="Echarged">      0.00000000 </i>
    <i name="Edipol_quadrupol">      0.00000000 </i>
    <i name="Eion">      0.00000000 </i>
   </dipole>
   <energy>
    <i name="e_fr_energy">   -633.61486326 </i>
    <i name="e_wo_entrp">   -633.53452981 </i>
    <i name="e_0_energy">   -633.57469654 </i>
   </energy>
  </scstep>
  <scstep>
   <time name="diag">    2.22    2.23</time>
   <time name="diis">    5.85    5.86</time>
   <time name="orth">    0.66    0.66</time>
   <time name="total">    9.25    9.27</time>
   <dipole>
    <v name="dipole">      0.00000000       0.00000000      -1.99634774 </v>
    <i name="Tr[quadrupol]"> -12786.43507687 </i>
    <i name="Echarged">      0.00000000 </i>
    <i name="Edipol_quadrupol">      0.00000000 </i>
    <i name="Eion">      0.00000000 </i>
   </dipole>
   <energy>
    <i name="e_fr_energy">   -635.78439760 </i>
    <i name="e_wo_entrp">   -635.70606935 </i>
    <i name="e_0_energy">   -635.74523348 </i>
   </energy>
  </scstep>
  <scstep>
   <time name="diag">    2.23    2.23</time>
   <time name="diis">    5.77    5.78</time>
   <time name="orth">    0.66    0.66</time>
   <time name="total">    9.17    9.21</time>
   <dipole>
    <v name="dipole">      0.00000000       0.00000000      -2.14424462 </v>
    <i name="Tr[quadrupol]"> -12786.04596330 </i>
    <i name="Echarged">      0.00000000 </i>
    <i name="Edipol_quadrupol">      0.00000000 </i>
    <i name="Eion">      0.00000000 </i>
   </dipole>
   <energy>
    <i name="e_fr_energy">   -630.44917896 </i>
    <i name="e_wo_entrp">   -630.37658120 </i>
    <i name="e_0_energy">   -630.41288008 </i>
   </energy>
  </scstep>
  <scstep>
   <time name="diag">    2.22    2.22</time>
   <time name="diis">    5.80    5.82</time>
   <time name="orth">    0.66    0.66</time>
   <time name="total">    9.20    9.22</time>
   <dipole>
    <v name="dipole">      0.00000000       0.00000000      -1.97514497 </v>
    <i name="Tr[quadrupol]"> -12784.28894681 </i>
    <i name="Echarged">      0.00000000 </i>
    <i name="Edipol_quadrupol">      0.00000000 </i>
    <i name="Eion">      0.00000000 </i>
   </dipole>
   <energy>
    <i name="e_fr_energy">   -630.52511910 </i>
    <i name="e_wo_entrp">   -630.47142832 </i>
    <i name="e_0_energy">   -630.49827371 </i>
   </energy>
  </scstep>
  <scstep>
   <time name="diag">    2.24    2.25</time>
   <time name="diis">    5.78    5.79</time>
   <time name="orth">    0.66    0.66</time>
   <time name="total">    9.20    9.23</time>
   <dipole>
    <v name="dipole">      0.00000000       0.00000000      -1.98636349 </v>
    <i name="Tr[quadrupol]"> -12781.55877820 </i>
    <i name="Echarged">      0.00000000 </i>
    <i name="Edipol_quadrupol">      0.00000000 </i>
    <i name="Eion">      0.00000000 </i>
   </dipole>
   <energy>
    <i name="e_fr_energy">   -624.21282075 </i>
    <i name="e_wo_entrp">   -624.16266084 </i>
    <i name="e_0_energy">   -624.18774080 </i>
   </energy>
  </scstep>
  <scstep>
   <time name="diag">    2.22    2.22</time>
   <time name="diis">    5.82    5.84</time>
   <time name="orth">    0.66    0.66</time>
   <time name="total">    9.25    9.28</time>
   <dipole>
    <v name="dipole">      0.00000000       0.00000000      -2.38342937 </v>
    <i name="Tr[quadrupol]"> -12781.60345856 </i>
    <i name="Echarged">      0.00000000 </i>
    <i name="Edipol_quadrupol">      0.00000000 </i>
    <i name="Eion">      0.00000000 </i>
   </dipole>
   <energy>
    <i name="e_fr_energy">   -607.45528610 </i>
    <i name="e_wo_entrp">   -607.40219420 </i>
    <i name="e_0_energy">   -607.42874015 </i>
   </energy>
  </scstep>
  <scstep>
   <time name="diag">    2.22    2.23</time>
   <time name="diis">    5.80    5.81</time>
   <time name="orth">    0.65    0.66</time>
   <time name="total">    9.20    9.23</time>
   <dipole>
    <v name="dipole">      0.00000000       0.00000000      -2.01886739 </v>
    <i name="Tr[quadrupol]"> -12781.30022957 </i>
    <i name="Echarged">      0.00000000 </i>
    <i name="Edipol_quadrupol">      0.00000000 </i>
    <i name="Eion">      0.00000000 </i>
   </dipole>
   <energy>
    <i name="e_fr_energy">   -608.15946687 </i>
    <i name="e_wo_entrp">   -608.09629003 </i>
    <i name="e_0_energy">   -608.12787845 </i>
   </energy>
  </scstep>
  <scstep>
   <time name="diag">    2.23    2.23</time>
   <time name="diis">    5.80    5.82</time>
   <time name="orth">    0.65    0.66</time>
   <time name="total">    9.21    9.23</time>
   <dipole>
    <v name="dipole">      0.00000000       0.00000000      -1.91536927 </v>
    <i name="Tr[quadrupol]"> -12779.99237598 </i>
    <i name="Echarged">      0.00000000 </i>
    <i name="Edipol_quadrupol">      0.00000000 </i>
    <i name="Eion">      0.00000000 </i>
   </dipole>
   <energy>
    <i name="e_fr_energy">   -612.03343156 </i>
    <i name="e_wo_entrp">   -611.96248051 </i>
    <i name="e_0_energy">   -611.99795603 </i>
   </energy>
  </scstep>
  <scstep>
   <time name="diag">    2.23    2.23</time>
   <time name="diis">    5.82    5.84</time>
   <time name="orth">    0.65    0.66</time>
   <time name="total">    9.23    9.26</time>
   <dipole>
    <v name="dipole">      0.00000000       0.00000000      -1.81831588 </v>
    <i name="Tr[quadrupol]"> -12779.07471267 </i>
    <i name="Echarged">      0.00000000 </i>
    <i name="Edipol_quadrupol">      0.00000000 </i>
    <i name="Eion">      0.00000000 </i>
   </dipole>
   <energy>
    <i name="e_fr_energy">   -613.31877884 </i>
    <i name="e_wo_entrp">   -613.25784012 </i>
    <i name="e_0_energy">   -613.28830948 </i>
   </energy>
  </scstep>
  <scstep>
   <time name="diag">    2.26    2.26</time>
   <time name="diis">    5.79    5.81</time>
   <time name="orth">    0.66    0.66</time>
   <time name="total">    9.23    9.26</time>
   <dipole>
    <v name="dipole">      0.00000000       0.00000000      -1.61404547 </v>
    <i name="Tr[quadrupol]"> -12776.21711090 </i>
    <i name="Echarged">      0.00000000 </i>
    <i name="Edipol_quadrupol">      0.00000000 </i>
    <i name="Eion">      0.00000000 </i>
   </dipole>
   <energy>
    <i name="e_fr_energy">   -613.84611142 </i>
    <i name="e_wo_entrp">   -613.79527214 </i>
    <i name="e_0_energy">   -613.82069178 </i>
   </energy>
  </scstep>
  <scstep>
   <time name="diag">    2.22    2.22</time>
   <time name="diis">    5.81    5.83</time>
   <time name="orth">    0.65    0.66</time>
   <time name="total">    9.21    9.24</time>
   <dipole>
    <v name="dipole">      0.00000000       0.00000000      -1.56947995 </v>
    <i name="Tr[quadrupol]"> -12775.35677700 </i>
    <i name="Echarged">      0.00000000 </i>
    <i name="Edipol_quadrupol">      0.00000000 </i>
    <i name="Eion">      0.00000000 </i>
   </dipole>
   <energy>
    <i name="e_fr_energy">   -613.33386822 </i>
    <i name="e_wo_entrp">   -613.25574899 </i>
    <i name="e_0_energy">   -613.29480861 </i>
   </energy>
  </scstep>
  <scstep>
   <time name="diag">    2.22    2.23</time>
   <time name="diis">    5.82    5.84</time>
   <time name="orth">    0.66    0.66</time>
   <time name="total">    9.22    9.25</time>
   <dipole>
    <v name="dipole">      0.00000000       0.00000000      -1.29843118 </v>
    <i name="Tr[quadrupol]"> -12773.46951003 </i>
    <i name="Echarged">      0.00000000 </i>
    <i name="Edipol_quadrupol">      0.00000000 </i>
    <i name="Eion">      0.00000000 </i>
   </dipole>
   <energy>
    <i name="e_fr_energy">   -615.03551621 </i>
    <i name="e_wo_entrp">   -614.98710900 </i>
    <i name="e_0_energy">   -615.01131261 </i>
   </energy>
  </scstep>
  <scstep>
   <time name="diag">    2.22    2.23</time>
   <time name="diis">    5.77    5.79</time>
   <time name="orth">    0.65    0.66</time>
   <time name="total">    9.18    9.21</time>
   <dipole>
    <v name="dipole">      0.00000000       0.00000000      -1.20081254 </v>
    <i name="Tr[quadrupol]"> -12772.04497633 </i>
    <i name="Echarged">      0.00000000 </i>
    <i name="Edipol_quadrupol">      0.00000000 </i>
    <i name="Eion">      0.00000000 </i>
   </dipole>
   <energy>
    <i name="e_fr_energy">   -617.15156698 </i>
    <i name="e_wo_entrp">   -617.09863376 </i>
    <i name="e_0_energy">   -617.12510037 </i>
   </energy>
  </scstep>
  <scstep>
   <time name="diag">    2.22    2.23</time>
   <time name="diis">    5.82    5.84</time>
   <time name="orth">    0.66    0.66</time>
   <time name="total">    9.23    9.26</time>
   <dipole>
    <v name="dipole">      0.00000000       0.00000000      -0.84483407 </v>
    <i name="Tr[quadrupol]"> -12768.19458598 </i>
    <i name="Echarged">      0.00000000 </i>
    <i name="Edipol_quadrupol">      0.00000000 </i>
    <i name="Eion">      0.00000000 </i>
   </dipole>
   <energy>
    <i name="e_fr_energy">   -617.07999365 </i>
    <i name="e_wo_entrp">   -617.01734677 </i>
    <i name="e_0_energy">   -617.04867021 </i>
   </energy>
  </scstep>
  <scstep>
   <time name="diag">    2.22    2.22</time>
   <time name="diis">    5.81    5.82</time>
   <time name="orth">    0.66    0.66</time>
   <time name="total">    9.21    9.24</time>
   <dipole>
    <v name="dipole">      0.00000000       0.00000000      -0.63042199 </v>
    <i name="Tr[quadrupol]"> -12764.96887751 </i>
    <i name="Echarged">      0.00000000 </i>
    <i name="Edipol_quadrupol">      0.00000000 </i>
    <i name="Eion">      0.00000000 </i>
   </dipole>
   <energy>
    <i name="e_fr_energy">   -617.66214078 </i>
    <i name="e_wo_entrp">   -617.57943017 </i>
    <i name="e_0_energy">   -617.62078548 </i>
   </energy>
  </scstep>
  <scstep>
   <time name="diag">    2.22    2.22</time>
   <time name="diis">    5.95    5.97</time>
   <time name="orth">    0.66    0.66</time>
   <time name="total">    9.36    9.39</time>
   <dipole>
    <v name="dipole">      0.00000000       0.00000000      -0.65632960 </v>
    <i name="Tr[quadrupol]"> -12764.61027754 </i>
    <i name="Echarged">      0.00000000 </i>
    <i name="Edipol_quadrupol">      0.00000000 </i>
    <i name="Eion">      0.00000000 </i>
   </dipole>
   <energy>
    <i name="e_fr_energy">   -617.72972096 </i>
    <i name="e_wo_entrp">   -617.64955502 </i>
    <i name="e_0_energy">   -617.68963799 </i>
   </energy>
  </scstep>
  <scstep>
   <time name="diag">    2.22    2.22</time>
   <time name="diis">    5.92    5.94</time>
   <time name="orth">    0.66    0.66</time>
   <time name="total">    9.33    9.37</time>
   <dipole>
    <v name="dipole">      0.00000000       0.00000000      -0.66408131 </v>
    <i name="Tr[quadrupol]"> -12764.39405590 </i>
    <i name="Echarged">      0.00000000 </i>
    <i name="Edipol_quadrupol">      0.00000000 </i>
    <i name="Eion">      0.00000000 </i>
   </dipole>
   <energy>
    <i name="e_fr_energy">   -617.68847824 </i>
    <i name="e_wo_entrp">   -617.60964747 </i>
    <i name="e_0_energy">   -617.64906286 </i>
   </energy>
  </scstep>
  <scstep>
   <time name="diag">    2.23    2.24</time>
   <time name="diis">    5.75    5.77</time>
   <time name="orth">    0.66    0.66</time>
   <time name="total">    9.18    9.21</time>
   <dipole>
    <v name="dipole">      0.00000000       0.00000000      -0.65785759 </v>
    <i name="Tr[quadrupol]"> -12764.34329327 </i>
    <i name="Echarged">      0.00000000 </i>
    <i name="Edipol_quadrupol">      0.00000000 </i>
    <i name="Eion">      0.00000000 </i>
   </dipole>
   <energy>
    <i name="e_fr_energy">   -617.86722950 </i>
    <i name="e_wo_entrp">   -617.79077339 </i>
    <i name="e_0_energy">   -617.82900144 </i>
   </energy>
  </scstep>
  <scstep>
   <time name="diag">    2.21    2.22</time>
   <time name="diis">    5.77    5.79</time>
   <time name="orth">    0.65    0.65</time>
   <time name="total">    9.20    9.22</time>
   <dipole>
    <v name="dipole">      0.00000000       0.00000000      -0.64289802 </v>
    <i name="Tr[quadrupol]"> -12764.15518387 </i>
    <i name="Echarged">      0.00000000 </i>
    <i name="Edipol_quadrupol">      0.00000000 </i>
    <i name="Eion">      0.00000000 </i>
   </dipole>
   <energy>
    <i name="e_fr_energy">   -617.99781144 </i>
    <i name="e_wo_entrp">   -617.92448274 </i>
    <i name="e_0_energy">   -617.96114709 </i>
   </energy>
  </scstep>
  <scstep>
   <time name="diag">    2.21    2.21</time>
   <time name="diis">    5.74    5.76</time>
   <time name="orth">    0.66    0.66</time>
   <time name="total">    9.14    9.16</time>
   <dipole>
    <v name="dipole">      0.00000000       0.00000000      -0.64034928 </v>
    <i name="Tr[quadrupol]"> -12764.06653361 </i>
    <i name="Echarged">      0.00000000 </i>
    <i name="Edipol_quadrupol">      0.00000000 </i>
    <i name="Eion">      0.00000000 </i>
   </dipole>
   <energy>
    <i name="e_fr_energy">   -617.92630813 </i>
    <i name="e_wo_entrp">   -617.85256501 </i>
    <i name="e_0_energy">   -617.88943657 </i>
   </energy>
  </scstep>
  <scstep>
   <time name="diag">    2.21    2.22</time>
   <time name="diis">    5.79    5.81</time>
   <time name="orth">    0.65    0.66</time>
   <time name="total">    9.19    9.21</time>
   <dipole>
    <v name="dipole">      0.00000000       0.00000000      -0.65005809 </v>
    <i name="Tr[quadrupol]"> -12764.09652655 </i>
    <i name="Echarged">      0.00000000 </i>
    <i name="Edipol_quadrupol">      0.00000000 </i>
    <i name="Eion">      0.00000000 </i>
   </dipole>
   <energy>
    <i name="e_fr_energy">   -617.93112627 </i>
    <i name="e_wo_entrp">   -617.85925122 </i>
    <i name="e_0_energy">   -617.89518875 </i>
   </energy>
  </scstep>
  <scstep>
   <time name="diag">    2.21    2.21</time>
   <time name="diis">    5.98    6.00</time>
   <time name="orth">    0.66    0.66</time>
   <time name="total">    9.38    9.40</time>
   <dipole>
    <v name="dipole">      0.00000000       0.00000000      -0.65111266 </v>
    <i name="Tr[quadrupol]"> -12764.10433289 </i>
    <i name="Echarged">      0.00000000 </i>
    <i name="Edipol_quadrupol">      0.00000000 </i>
    <i name="Eion">      0.00000000 </i>
   </dipole>
   <energy>
    <i name="e_fr_energy">   -617.95584811 </i>
    <i name="e_wo_entrp">   -617.88417424 </i>
    <i name="e_0_energy">   -617.92001117 </i>
   </energy>
  </scstep>
  <scstep>
   <time name="diag">    2.24    2.25</time>
   <time name="diis">    5.74    5.76</time>
   <time name="orth">    0.66    0.66</time>
   <time name="total">    9.16    9.19</time>
   <dipole>
    <v name="dipole">      0.00000000       0.00000000      -0.64765725 </v>
    <i name="Tr[quadrupol]"> -12764.01701478 </i>
    <i name="Echarged">      0.00000000 </i>
    <i name="Edipol_quadrupol">      0.00000000 </i>
    <i name="Eion">      0.00000000 </i>
   </dipole>
   <energy>
    <i name="e_fr_energy">   -618.39148572 </i>
    <i name="e_wo_entrp">   -618.32169951 </i>
    <i name="e_0_energy">   -618.35659261 </i>
   </energy>
  </scstep>
  <scstep>
   <time name="diag">    2.21    2.22</time>
   <time name="diis">    5.78    5.80</time>
   <time name="orth">    0.65    0.66</time>
   <time name="total">    9.17    9.21</time>
   <dipole>
    <v name="dipole">      0.00000000       0.00000000      -0.57024829 </v>
    <i name="Tr[quadrupol]"> -12762.82661439 </i>
    <i name="Echarged">      0.00000000 </i>
    <i name="Edipol_quadrupol">      0.00000000 </i>
    <i name="Eion">      0.00000000 </i>
   </dipole>
   <energy>
    <i name="e_fr_energy">   -617.84048138 </i>
    <i name="e_wo_entrp">   -617.77097245 </i>
    <i name="e_0_energy">   -617.80572691 </i>
   </energy>
  </scstep>
  <scstep>
   <time name="diag">    2.21    2.22</time>
   <time name="diis">    5.78    5.80</time>
   <time name="orth">    0.65    0.66</time>
   <time name="total">    9.18    9.20</time>
   <dipole>
    <v name="dipole">      0.00000000       0.00000000      -0.33060218 </v>
    <i name="Tr[quadrupol]"> -12760.37172069 </i>
    <i name="Echarged">      0.00000000 </i>
    <i name="Edipol_quadrupol">      0.00000000 </i>
    <i name="Eion">      0.00000000 </i>
   </dipole>
   <energy>
    <i name="e_fr_energy">   -615.95150235 </i>
    <i name="e_wo_entrp">   -615.88231665 </i>
    <i name="e_0_energy">   -615.91690950 </i>
   </energy>
  </scstep>
  <scstep>
   <time name="diag">    2.21    2.22</time>
   <time name="diis">    5.80    5.82</time>
   <time name="orth">    0.65    0.66</time>
   <time name="total">    9.19    9.22</time>
   <dipole>
    <v name="dipole">      0.00000000       0.00000000      -0.14776474 </v>
    <i name="Tr[quadrupol]"> -12758.74949191 </i>
    <i name="Echarged">      0.00000000 </i>
    <i name="Edipol_quadrupol">      0.00000000 </i>
    <i name="Eion">      0.00000000 </i>
   </dipole>
   <energy>
    <i name="e_fr_energy">   -616.76495634 </i>
    <i name="e_wo_entrp">   -616.69717232 </i>
    <i name="e_0_energy">   -616.73106433 </i>
   </energy>
  </scstep>
  <scstep>
   <time name="diag">    2.21    2.22</time>
   <time name="diis">    5.74    5.76</time>
   <time name="orth">    0.65    0.66</time>
   <time name="total">    9.14    9.16</time>
   <dipole>
    <v name="dipole">      0.00000000       0.00000000       0.00033844 </v>
    <i name="Tr[quadrupol]"> -12757.53465956 </i>
    <i name="Echarged">      0.00000000 </i>
    <i name="Edipol_quadrupol">      0.00000000 </i>
    <i name="Eion">      0.00000000 </i>
   </dipole>
   <energy>
    <i name="e_fr_energy">   -617.93128292 </i>
    <i name="e_wo_entrp">   -617.86472559 </i>
    <i name="e_0_energy">   -617.89800425 </i>
   </energy>
  </scstep>
  <scstep>
   <time name="diag">    2.21    2.22</time>
   <time name="diis">    5.81    5.83</time>
   <time name="orth">    0.65    0.66</time>
   <time name="total">    9.20    9.23</time>
   <dipole>
    <v name="dipole">      0.00000000       0.00000000       0.09566743 </v>
    <i name="Tr[quadrupol]"> -12756.68273205 </i>
    <i name="Echarged">      0.00000000 </i>
    <i name="Edipol_quadrupol">      0.00000000 </i>
    <i name="Eion">      0.00000000 </i>
   </dipole>
   <energy>
    <i name="e_fr_energy">   -618.51415606 </i>
    <i name="e_wo_entrp">   -618.45046098 </i>
    <i name="e_0_energy">   -618.48230852 </i>
   </energy>
  </scstep>
  <scstep>
   <time name="diag">    2.21    2.22</time>
   <time name="diis">    5.79    5.81</time>
   <time name="orth">    0.66    0.66</time>
   <time name="total">    9.19    9.22</time>
   <dipole>
    <v name="dipole">      0.00000000       0.00000000       0.25655103 </v>
    <i name="Tr[quadrupol]"> -12754.87539561 </i>
    <i name="Echarged">      0.00000000 </i>
    <i name="Edipol_quadrupol">      0.00000000 </i>
    <i name="Eion">      0.00000000 </i>
   </dipole>
   <energy>
    <i name="e_fr_energy">   -619.18580464 </i>
    <i name="e_wo_entrp">   -619.12814903 </i>
    <i name="e_0_energy">   -619.15697683 </i>
   </energy>
  </scstep>
  <scstep>
   <time name="diag">    2.22    2.22</time>
   <time name="diis">    5.82    5.84</time>
   <time name="orth">    0.65    0.66</time>
   <time name="total">    9.22    9.24</time>
   <dipole>
    <v name="dipole">      0.00000000       0.00000000       0.46589499 </v>
    <i name="Tr[quadrupol]"> -12752.09904576 </i>
    <i name="Echarged">      0.00000000 </i>
    <i name="Edipol_quadrupol">      0.00000000 </i>
    <i name="Eion">      0.00000000 </i>
   </dipole>
   <energy>
    <i name="e_fr_energy">   -619.97132089 </i>
    <i name="e_wo_entrp">   -619.91493832 </i>
    <i name="e_0_energy">   -619.94312960 </i>
   </energy>
  </scstep>
  <scstep>
   <time name="diag">    2.24    2.24</time>
   <time name="diis">    5.79    5.80</time>
   <time name="orth">    0.66    0.66</time>
   <time name="total">    9.21    9.25</time>
   <dipole>
    <v name="dipole">      0.00000000       0.00000000       0.61412886 </v>
    <i name="Tr[quadrupol]"> -12749.76040670 </i>
    <i name="Echarged">      0.00000000 </i>
    <i name="Edipol_quadrupol">      0.00000000 </i>
    <i name="Eion">      0.00000000 </i>
   </dipole>
   <energy>
    <i name="e_fr_energy">   -621.24567014 </i>
    <i name="e_wo_entrp">   -621.19222958 </i>
    <i name="e_0_energy">   -621.21894986 </i>
   </energy>
  </scstep>
  <scstep>
   <time name="diag">    2.21    2.22</time>
   <time name="diis">    5.77    5.79</time>
   <time name="orth">    0.66    0.66</time>
   <time name="total">    9.21    9.24</time>
   <dipole>
    <v name="dipole">      0.00000000       0.00000000       0.89824573 </v>
    <i name="Tr[quadrupol]"> -12745.50814434 </i>
    <i name="Echarged">      0.00000000 </i>
    <i name="Edipol_quadrupol">      0.00000000 </i>
    <i name="Eion">      0.00000000 </i>
   </dipole>
   <energy>
    <i name="e_fr_energy">   -622.48423347 </i>
    <i name="e_wo_entrp">   -622.42944778 </i>
    <i name="e_0_energy">   -622.45684063 </i>
   </energy>
  </scstep>
  <scstep>
   <time name="diag">    2.21    2.22</time>
   <time name="diis">    5.79    5.81</time>
   <time name="orth">    0.66    0.66</time>
   <time name="total">    9.20    9.23</time>
   <dipole>
    <v name="dipole">      0.00000000       0.00000000       0.94932990 </v>
    <i name="Tr[quadrupol]"> -12744.10718836 </i>
    <i name="Echarged">      0.00000000 </i>
    <i name="Edipol_quadrupol">      0.00000000 </i>
    <i name="Eion">      0.00000000 </i>
   </dipole>
   <energy>
    <i name="e_fr_energy">   -622.92019515 </i>
    <i name="e_wo_entrp">   -622.86347866 </i>
    <i name="e_0_energy">   -622.89183690 </i>
   </energy>
  </scstep>
  <scstep>
   <time name="diag">    2.22    2.22</time>
   <time name="diis">    5.83    5.84</time>
   <time name="orth">    0.66    0.66</time>
   <time name="total">    9.23    9.26</time>
   <dipole>
    <v name="dipole">      0.00000000       0.00000000       0.55251803 </v>
    <i name="Tr[quadrupol]"> -12747.05277855 </i>
    <i name="Echarged">      0.00000000 </i>
    <i name="Edipol_quadrupol">      0.00000000 </i>
    <i name="Eion">      0.00000000 </i>
   </dipole>
   <energy>
    <i name="e_fr_energy">   -622.98558992 </i>
    <i name="e_wo_entrp">   -622.93313635 </i>
    <i name="e_0_energy">   -622.95936313 </i>
   </energy>
  </scstep>
  <scstep>
   <time name="diag">    2.22    2.22</time>
   <time name="diis">    5.80    5.82</time>
   <time name="orth">    0.66    0.66</time>
   <time name="total">    9.20    9.23</time>
   <dipole>
    <v name="dipole">      0.00000000       0.00000000       0.59842357 </v>
    <i name="Tr[quadrupol]"> -12746.10468896 </i>
    <i name="Echarged">      0.00000000 </i>
    <i name="Edipol_quadrupol">      0.00000000 </i>
    <i name="Eion">      0.00000000 </i>
   </dipole>
   <energy>
    <i name="e_fr_energy">   -623.37543740 </i>
    <i name="e_wo_entrp">   -623.32295240 </i>
    <i name="e_0_energy">   -623.34919490 </i>
   </energy>
  </scstep>
  <scstep>
   <time name="diag">    2.25    2.26</time>
   <time name="diis">    5.79    5.80</time>
   <time name="orth">    0.66    0.66</time>
   <time name="total">    9.22    9.25</time>
   <dipole>
    <v name="dipole">      0.00000000       0.00000000       0.63686192 </v>
    <i name="Tr[quadrupol]"> -12744.55500901 </i>
    <i name="Echarged">      0.00000000 </i>
    <i name="Edipol_quadrupol">      0.00000000 </i>
    <i name="Eion">      0.00000000 </i>
   </dipole>
   <energy>
    <i name="e_fr_energy">   -623.87609089 </i>
    <i name="e_wo_entrp">   -623.82192924 </i>
    <i name="e_0_energy">   -623.84901007 </i>
   </energy>
  </scstep>
  <scstep>
   <time name="diag">    2.21    2.22</time>
   <time name="diis">    5.79    5.81</time>
   <time name="orth">    0.65    0.66</time>
   <time name="total">    9.19    9.22</time>
   <dipole>
    <v name="dipole">      0.00000000       0.00000000       0.69036216 </v>
    <i name="Tr[quadrupol]"> -12743.63148280 </i>
    <i name="Echarged">      0.00000000 </i>
    <i name="Edipol_quadrupol">      0.00000000 </i>
    <i name="Eion">      0.00000000 </i>
   </dipole>
   <energy>
    <i name="e_fr_energy">   -624.18552197 </i>
    <i name="e_wo_entrp">   -624.12529927 </i>
    <i name="e_0_energy">   -624.15541062 </i>
   </energy>
  </scstep>
  <scstep>
   <time name="diag">    2.21    2.22</time>
   <time name="diis">    5.73    5.74</time>
   <time name="orth">    0.66    0.66</time>
   <time name="total">    9.12    9.16</time>
   <dipole>
    <v name="dipole">      0.00000000       0.00000000       0.78849975 </v>
    <i name="Tr[quadrupol]"> -12741.97639543 </i>
    <i name="Echarged">      0.00000000 </i>
    <i name="Edipol_quadrupol">      0.00000000 </i>
    <i name="Eion">      0.00000000 </i>
   </dipole>
   <energy>
    <i name="e_fr_energy">   -624.16824324 </i>
    <i name="e_wo_entrp">   -624.10907550 </i>
    <i name="e_0_energy">   -624.13865937 </i>
   </energy>
  </scstep>
  <scstep>
   <time name="diag">    2.21    2.22</time>
   <time name="diis">    5.80    5.82</time>
[...]
       <r>   -10.7502     0.0000    68.0000 </r>
       <r>   -10.6451     0.0000    68.0000 </r>
       <r>   -10.5401     0.0000    68.0000 </r>
       <r>   -10.4350     0.0000    68.0000 </r>
       <r>   -10.3299     0.0000    68.0000 </r>
       <r>   -10.2248     0.0000    68.0000 </r>
       <r>   -10.1197     0.0000    68.0000 </r>
       <r>   -10.0146     0.0000    68.0000 </r>
       <r>    -9.9095     0.0000    68.0000 </r>
       <r>    -9.8044     0.0009    68.0001 </r>
       <r>    -9.6993     0.7032    68.0740 </r>
       <r>    -9.5943     4.9370    68.5928 </r>
       <r>    -9.4892     3.7233    68.9841 </r>
       <r>    -9.3841     4.1136    69.4164 </r>
       <r>    -9.2790    11.1854    70.5919 </r>
       <r>    -9.1739     3.9647    71.0085 </r>
       <r>    -9.0688     6.6105    71.7032 </r>
       <r>    -8.9637    11.6275    72.9251 </r>
       <r>    -8.8586    13.3667    74.3298 </r>
       <r>    -8.7535    20.5392    76.4882 </r>
       <r>    -8.6485    18.5139    78.4338 </r>
       <r>    -8.5434    19.7497    80.5093 </r>
       <r>    -8.4383    24.3103    83.0640 </r>
       <r>    -8.3332    29.3384    86.1471 </r>
       <r>    -8.2281    37.4294    90.0805 </r>
       <r>    -8.1230    29.9932    93.2325 </r>
       <r>    -8.0179    38.8466    97.3148 </r>
       <r>    -7.9128    63.4228   103.9798 </r>
       <r>    -7.8078    55.9912   109.8638 </r>
       <r>    -7.7027    46.5705   114.7578 </r>
       <r>    -7.5976    33.6394   118.2929 </r>
       <r>    -7.4925    30.3354   121.4808 </r>
       <r>    -7.3874    21.9894   123.7917 </r>
       <r>    -7.2823    22.7519   126.1826 </r>
       <r>    -7.1772    25.3752   128.8493 </r>
       <r>    -7.0721    27.4007   131.7288 </r>
       <r>    -6.9670    31.1433   135.0016 </r>
       <r>    -6.8620    27.6295   137.9051 </r>
       <r>    -6.7569    19.4118   139.9451 </r>
       <r>    -6.6518    17.8687   141.8228 </r>
       <r>    -6.5467    19.7150   143.8947 </r>
       <r>    -6.4416    25.7583   146.6016 </r>
       <r>    -6.3365    31.4935   149.9112 </r>
       <r>    -6.2314    34.5371   153.5406 </r>
       <r>    -6.1263    32.8767   156.9956 </r>
       <r>    -6.0213    34.2490   160.5947 </r>
       <r>    -5.9162    34.2085   164.1897 </r>
       <r>    -5.8111    42.9703   168.7053 </r>
       <r>    -5.7060    44.6567   173.3982 </r>
       <r>    -5.6009    41.5144   177.7609 </r>
       <r>    -5.4958    37.2921   181.6799 </r>
       <r>    -5.3907    35.5870   185.4197 </r>
       <r>    -5.2856    39.4948   189.5701 </r>
       <r>    -5.1805    39.0045   193.6690 </r>
       <r>    -5.0755    38.5014   197.7151 </r>
       <r>    -4.9704    37.0338   201.6069 </r>
       <r>    -4.8653    39.0910   205.7149 </r>
       <r>    -4.7602    40.2773   209.9476 </r>
       <r>    -4.6551    23.3219   212.3984 </r>
       <r>    -4.5500    32.9451   215.8606 </r>
       <r>    -4.4449    26.8367   218.6808 </r>
       <r>    -4.3398    32.1972   222.0644 </r>
       <r>    -4.2348    28.2225   225.0302 </r>
       <r>    -4.1297    29.0174   228.0796 </r>
       <r>    -4.0246    34.3529   231.6897 </r>
       <r>    -3.9195    36.3299   235.5075 </r>
       <r>    -3.8144    37.0707   239.4032 </r>
       <r>    -3.7093    25.6060   242.0941 </r>
       <r>    -3.6042    25.8855   244.8144 </r>
       <r>    -3.4991    24.3871   247.3772 </r>
       <r>    -3.3940    24.0358   249.9031 </r>
       <r>    -3.2890    29.9230   253.0476 </r>
       <r>    -3.1839    37.6749   257.0068 </r>
       <r>    -3.0788    21.0849   259.2226 </r>
       <r>    -2.9737    23.2758   261.6686 </r>
       <r>    -2.8686    28.2737   264.6399 </r>
       <r>    -2.7635    19.6639   266.7063 </r>
       <r>    -2.6584    15.6302   268.3489 </r>
       <r>    -2.5533    19.4747   270.3954 </r>
       <r>    -2.4482    29.7591   273.5228 </r>
       <r>    -2.3432    34.2907   277.1263 </r>
       <r>    -2.2381    42.5468   281.5975 </r>
       <r>    -2.1330    58.2102   287.7147 </r>
       <r>    -2.0279    50.0608   292.9755 </r>
       <r>    -1.9228    47.1882   297.9344 </r>
       <r>    -1.8177    39.4317   302.0782 </r>
       <r>    -1.7126    44.7444   306.7804 </r>
       <r>    -1.6075    42.9923   311.2983 </r>
       <r>    -1.5025    46.4555   316.1803 </r>
       <r>    -1.3974    31.5645   319.4973 </r>
       <r>    -1.2923    23.7700   321.9953 </r>
       <r>    -1.1872    17.0360   323.7856 </r>
       <r>    -1.0821    22.7446   326.1758 </r>
       <r>    -0.9770    27.2835   329.0429 </r>
       <r>    -0.8719    13.5185   330.4636 </r>
       <r>    -0.7668    24.4509   333.0331 </r>
       <r>    -0.6617    25.9666   335.7619 </r>
       <r>    -0.5567    23.7456   338.2573 </r>
       <r>    -0.4516    20.0223   340.3614 </r>
       <r>    -0.3465    30.2876   343.5442 </r>
       <r>    -0.2414    28.4340   346.5323 </r>
       <r>    -0.1363    28.2801   349.5042 </r>
       <r>    -0.0312    30.8182   352.7429 </r>
       <r>     0.0739    29.6679   355.8606 </r>
       <r>     0.1790    41.2427   360.1947 </r>
       <r>     0.2840    31.6146   363.5171 </r>
       <r>     0.3891    26.4637   366.2981 </r>
       <r>     0.4942    20.9384   368.4985 </r>
       <r>     0.5993     7.2311   369.2584 </r>
       <r>     0.7044     8.6379   370.1661 </r>
       <r>     0.8095     5.0261   370.6943 </r>
       <r>     0.9146    11.9293   371.9479 </r>
       <r>     1.0197    13.2124   373.3364 </r>
       <r>     1.1248    13.2010   374.7237 </r>
       <r>     1.2298     5.6458   375.3170 </r>
       <r>     1.3349     8.2394   376.1829 </r>
       <r>     1.4400    13.0989   377.5594 </r>
       <r>     1.5451    14.3590   379.0684 </r>
       <r>     1.6502    12.3966   380.3711 </r>
       <r>     1.7553    18.5043   382.3157 </r>
       <r>     1.8604    12.9665   383.6783 </r>
       <r>     1.9655    18.9706   385.6719 </r>
       <r>     2.0705    20.9657   387.8752 </r>
       <r>     2.1756    19.9100   389.9675 </r>
       <r>     2.2807    17.1163   391.7662 </r>
       <r>     2.3858    15.8477   393.4316 </r>
       <r>     2.4909    17.9524   395.3182 </r>
       <r>     2.5960    23.9425   397.8343 </r>
       <r>     2.7011    12.6820   399.1670 </r>
       <r>     2.8062    16.9814   400.9515 </r>
       <r>     2.9113    16.9640   402.7342 </r>
       <r>     3.0163    20.1661   404.8535 </r>
       <r>     3.1214    28.3483   407.8326 </r>
       <r>     3.2265    25.8784   410.5521 </r>
       <r>     3.3316    21.4890   412.8103 </r>
       <r>     3.4367    17.2654   414.6247 </r>
       <r>     3.5418    18.9934   416.6207 </r>
       <r>     3.6469    27.1026   419.4689 </r>
       <r>     3.7520    18.6672   421.4306 </r>
       <r>     3.8571    18.1307   423.3359 </r>
       <r>     3.9621    13.7402   424.7798 </r>
       <r>     4.0672     3.4162   425.1388 </r>
       <r>     4.1723     7.5886   425.9363 </r>
       <r>     4.2774     9.1155   426.8942 </r>
       <r>     4.3825     4.6126   427.3790 </r>
       <r>     4.4876     3.7629   427.7744 </r>
       <r>     4.5927     2.7624   428.0647 </r>
       <r>     4.6978     8.0377   428.9093 </r>
       <r>     4.8028     0.8622   429.0000 </r>
       <r>     4.9079     0.3685   429.0387 </r>
       <r>     5.0130     2.0710   429.2563 </r>
       <r>     5.1181     5.8754   429.8738 </r>
       <r>     5.2232     2.6179   430.1489 </r>
       <r>     5.3283     3.8088   430.5491 </r>
       <r>     5.4334     1.3005   430.6858 </r>
       <r>     5.5385     3.5617   431.0601 </r>
       <r>     5.6436     3.8334   431.4629 </r>
       <r>     5.7486     2.4223   431.7175 </r>
       <r>     5.8537     6.5382   432.4046 </r>
       <r>     5.9588     8.6649   433.3152 </r>
       <r>     6.0639     6.3154   433.9788 </r>
       <r>     6.1690     4.7523   434.4782 </r>
       <r>     6.2741     8.1360   435.3332 </r>
       <r>     6.3792     5.9207   435.9554 </r>
       <r>     6.4843     8.7192   436.8717 </r>
       <r>     6.5893     8.7754   437.7939 </r>
       <r>     6.6944     8.4112   438.6778 </r>
       <r>     6.7995     5.2958   439.2343 </r>
       <r>     6.9046     6.9996   439.9699 </r>
       <r>     7.0097     7.1694   440.7233 </r>
       <r>     7.1148    13.3093   442.1220 </r>
       <r>     7.2199     7.0118   442.8589 </r>
       <r>     7.3250     7.2205   443.6176 </r>
       <r>     7.4301     1.8163   443.8085 </r>
       <r>     7.5351     1.7602   443.9935 </r>
       <r>     7.6402     0.0619   444.0000 </r>
       <r>     7.7453     0.0000   444.0000 </r>
       <r>     7.8504     0.0000   444.0000 </r>
       <r>     7.9555     0.0000   444.0000 </r>
       <r>     8.0606     0.0000   444.0000 </r>
       <r>     8.1657     0.0000   444.0000 </r>
       <r>     8.2708     0.0000   444.0000 </r>
       <r>     8.3758     0.0000   444.0000 </r>
       <r>     8.4809     0.0000   444.0000 </r>
       <r>     8.5860     0.0000   444.0000 </r>
       <r>     8.6911     0.0000   444.0000 </r>
       <r>     8.7962     0.0000   444.0000 </r>
       <r>     8.9013     0.0000   444.0000 </r>
      </set>
     </set>
    </array>
   </total>
  </dos>
 </calculation>
 <structure name="finalpos" >
  <crystal>
   <varray name="basis" >
    <v>      12.80853200       0.00000000       0.00000000 </v>
    <v>       0.00000000       6.47024300       0.00000000 </v>
    <v>       0.00000000       0.00000000      25.88097200 </v>
   </varray>
   <i name="volume">   2144.86781344 </i>
   <varray name="rec_basis" >
    <v>       0.07807296       0.00000000       0.00000000 </v>
    <v>       0.00000000       0.15455370       0.00000000 </v>
    <v>       0.00000000       0.00000000       0.03863843 </v>
   </varray>
  </crystal>
  <varray name="positions" >
   <v>       0.12500000       0.50000000       0.18750000 </v>
   <v>       0.37500000       0.50000000       0.18750000 </v>
   <v>       0.12500000       0.00000000       0.06250000 </v>
   <v>       0.37500000       0.00000000       0.06250000 </v>
   <v>       0.00000000       0.50000000       0.06250000 </v>
   <v>       0.25000000       0.50000000       0.06250000 </v>
   <v>       0.00000000       0.00000000       0.18750000 </v>
   <v>       0.25000000       0.00000000       0.18750000 </v>
   <v>       0.12234917       0.50000000       0.44060222 </v>
   <v>       0.37485050       0.50000000       0.43475478 </v>
   <v>       0.12499634       0.00000000       0.31255847 </v>
   <v>       0.37514626       0.00000000       0.31249108 </v>
   <v>       0.00210401       0.50000000       0.31395200 </v>
   <v>       0.25046714       0.50000000       0.31176219 </v>
   <v>      -0.00592948       0.00000000       0.44194145 </v>
   <v>       0.24933057       0.00000000       0.44078298 </v>
   <v>       0.00000000       0.50000000       0.13961000 </v>
   <v>       0.25000000       0.50000000       0.13961000 </v>
   <v>       0.00000000       0.00000000       0.01461000 </v>
   <v>       0.25000000       0.00000000       0.01461000 </v>
   <v>       0.12500000       0.80844000       0.18750000 </v>
   <v>       0.37500000       0.80844000       0.18750000 </v>
   <v>       0.12500000       0.30844000       0.06250000 </v>
   <v>       0.37500000       0.30844000       0.06250000 </v>
   <v>       0.00000000       0.50000000       0.23539000 </v>
   <v>       0.25000000       0.50000000       0.23539000 </v>
   <v>       0.00000000       0.00000000       0.11039000 </v>
   <v>       0.25000000       0.00000000       0.11039000 </v>
   <v>       0.12500000       0.19156000       0.18750000 </v>
   <v>       0.37500000       0.19156000       0.18750000 </v>
   <v>       0.12500000       0.69156000       0.06250000 </v>
   <v>       0.37500000       0.69156000       0.06250000 </v>
   <v>       0.01743577       0.50000000       0.38744080 </v>
   <v>       0.24898287       0.50000000       0.38772680 </v>
   <v>       0.99982100       0.00000000       0.26492032 </v>
   <v>       0.25002083       0.00000000       0.26467813 </v>
   <v>       0.12415938       0.81104852       0.43537843 </v>
   <v>       0.37492726       0.80915487       0.43482082 </v>
   <v>       0.12618184       0.30762870       0.31014178 </v>
   <v>       0.37524802       0.30782129       0.31187109 </v>
   <v>       0.04168446       0.50000000       0.49676030 </v>
   <v>       0.25223670       0.50000000       0.48001754 </v>
   <v>       0.00033776       0.00000000       0.36122254 </v>
   <v>       0.24985309       0.00000000       0.36036182 </v>
   <v>       0.12415938       0.18895148       0.43537843 </v>
   <v>       0.37492726       0.19084513       0.43482082 </v>
   <v>       0.12618184       0.69237130       0.31014178 </v>
   <v>       0.37524802       0.69217871       0.31187109 </v>
   <v>       0.24952603       0.00000000       0.51008351 </v>
   <v>       0.00446459       0.00000000       0.51026200 </v>
   <v>       0.62500000       0.50000000       0.18750000 </v>
   <v>       0.87500000       0.50000000       0.18750000 </v>
   <v>       0.62500000       0.00000000       0.06250000 </v>
   <v>       0.87500000       0.00000000       0.06250000 </v>
   <v>       0.50000000       0.50000000       0.06250000 </v>
   <v>       0.75000000       0.50000000       0.06250000 </v>
   <v>       0.50000000       0.00000000       0.18750000 </v>
   <v>       0.75000000       0.00000000       0.18750000 </v>
   <v>       0.62750489       0.50000000       0.44034243 </v>
   <v>       0.62538441       0.00000000       0.31255361 </v>
   <v>       0.87528794       0.00000000       0.31318758 </v>
   <v>       0.49977854       0.50000000       0.31173961 </v>
   <v>       0.74847652       0.50000000       0.31401563 </v>
   <v>       0.50066292       0.00000000       0.44057635 </v>
   <v>       0.75582097       0.00000000       0.44171633 </v>
   <v>       0.50000000       0.50000000       0.13961000 </v>
   <v>       0.75000000       0.50000000       0.13961000 </v>
   <v>       0.50000000       0.00000000       0.01461000 </v>
   <v>       0.75000000       0.00000000       0.01461000 </v>
   <v>       0.62500000       0.80844000       0.18750000 </v>
   <v>       0.87500000       0.80844000       0.18750000 </v>
   <v>       0.62500000       0.30844000       0.06250000 </v>
   <v>       0.87500000       0.30844000       0.06250000 </v>
   <v>       0.50000000       0.50000000       0.23539000 </v>
   <v>       0.75000000       0.50000000       0.23539000 </v>
   <v>       0.50000000       0.00000000       0.11039000 </v>
   <v>       0.75000000       0.00000000       0.11039000 </v>
   <v>       0.62500000       0.19156000       0.18750000 </v>
   <v>       0.87500000       0.19156000       0.18750000 </v>
   <v>       0.62500000       0.69156000       0.06250000 </v>
   <v>       0.87500000       0.69156000       0.06250000 </v>
   <v>       0.50056150       0.50000000       0.38761921 </v>
   <v>       0.73349364       0.50000000       0.38751961 </v>
   <v>       0.50018400       0.00000000       0.26470422 </v>
   <v>       0.75067404       0.00000000       0.26489112 </v>
   <v>       0.62576686       0.81083152       0.43475738 </v>
   <v>       0.87500334       0.81441495       0.43594646 </v>
   <v>       0.62414908       0.30776083       0.31040417 </v>
   <v>       0.87540350       0.30902050       0.31396770 </v>
   <v>       0.49761173       0.50000000       0.47985442 </v>
   <v>       0.70804882       0.50000000       0.49657755 </v>
   <v>       0.50026368       0.00000000       0.36024534 </v>
   <v>       0.75023110       0.00000000       0.36110839 </v>
   <v>       0.62576686       0.18916848       0.43475738 </v>
   <v>       0.87500334       0.18558505       0.43594646 </v>
   <v>       0.62414908       0.69223917       0.31040417 </v>
   <v>       0.87540350       0.69097950       0.31396770 </v>
   <v>       0.74470336       0.00000000       0.51004640 </v>
   <v>       0.50156588       0.00000000       0.50988675 </v>
  </varray>
  <varray name="selective"  type="logical" >
   <v type="logical" >  F  F  F </v>
   <v type="logical" >  F  F  F </v>
   <v type="logical" >  F  F  F </v>
   <v type="logical" >  F  F  F </v>
   <v type="logical" >  F  F  F </v>
   <v type="logical" >  F  F  F </v>
   <v type="logical" >  F  F  F </v>
   <v type="logical" >  F  F  F </v>
   <v type="logical" >  T  T  T </v>
   <v type="logical" >  T  T  T </v>
   <v type="logical" >  T  T  T </v>
   <v type="logical" >  T  T  T </v>
   <v type="logical" >  T  T  T </v>
   <v type="logical" >  T  T  T </v>
   <v type="logical" >  T  T  T </v>
   <v type="logical" >  T  T  T </v>
   <v type="logical" >  F  F  F </v>
   <v type="logical" >  F  F  F </v>
   <v type="logical" >  F  F  F </v>
   <v type="logical" >  F  F  F </v>
   <v type="logical" >  F  F  F </v>
   <v type="logical" >  F  F  F </v>
   <v type="logical" >  F  F  F </v>
   <v type="logical" >  F  F  F </v>
   <v type="logical" >  F  F  F </v>
   <v type="logical" >  F  F  F </v>
   <v type="logical" >  F  F  F </v>
   <v type="logical" >  F  F  F </v>
   <v type="logical" >  F  F  F </v>
   <v type="logical" >  F  F  F </v>
   <v type="logical" >  F  F  F </v>
   <v type="logical" >  F  F  F </v>
   <v type="logical" >  T  T  T </v>
   <v type="logical" >  T  T  T </v>
   <v type="logical" >  T  T  T </v>
   <v type="logical" >  T  T  T </v>
   <v type="logical" >  T  T  T </v>
   <v type="logical" >  T  T  T </v>
   <v type="logical" >  T  T  T </v>
   <v type="logical" >  T  T  T </v>
   <v type="logical" >  T  T  T </v>
   <v type="logical" >  T  T  T </v>
   <v type="logical" >  T  T  T </v>
   <v type="logical" >  T  T  T </v>
   <v type="logical" >  T  T  T </v>
   <v type="logical" >  T  T  T </v>
   <v type="logical" >  T  T  T </v>
   <v type="logical" >  T  T  T </v>
   <v type="logical" >  T  T  T </v>
   <v type="logical" >  T  T  T </v>
   <v type="logical" >  F  F  F </v>
   <v type="logical" >  F  F  F </v>
   <v type="logical" >  F  F  F </v>
   <v type="logical" >  F  F  F </v>
   <v type="logical" >  F  F  F </v>
   <v type="logical" >  F  F  F </v>
   <v type="logical" >  F  F  F </v>
   <v type="logical" >  F  F  F </v>
   <v type="logical" >  T  T  T </v>
   <v type="logical" >  T  T  T </v>
   <v type="logical" >  T  T  T </v>
   <v type="logical" >  T  T  T </v>
   <v type="logical" >  T  T  T </v>
   <v type="logical" >  T  T  T </v>
   <v type="logical" >  T  T  T </v>
   <v type="logical" >  F  F  F </v>
   <v type="logical" >  F  F  F </v>
   <v type="logical" >  F  F  F </v>
   <v type="logical" >  F  F  F </v>
   <v type="logical" >  F  F  F </v>
   <v type="logical" >  F  F  F </v>
   <v type="logical" >  F  F  F </v>
   <v type="logical" >  F  F  F </v>
   <v type="logical" >  F  F  F </v>
   <v type="logical" >  F  F  F </v>
   <v type="logical" >  F  F  F </v>
   <v type="logical" >  F  F  F </v>
   <v type="logical" >  F  F  F </v>
   <v type="logical" >  F  F  F </v>
   <v type="logical" >  F  F  F </v>
   <v type="logical" >  F  F  F </v>
   <v type="logical" >  T  T  T </v>
   <v type="logical" >  T  T  T </v>
   <v type="logical" >  T  T  T </v>
   <v type="logical" >  T  T  T </v>
   <v type="logical" >  T  T  T </v>
   <v type="logical" >  T  T  T </v>
   <v type="logical" >  T  T  T </v>
   <v type="logical" >  T  T  T </v>
   <v type="logical" >  T  T  T </v>
   <v type="logical" >  T  T  T </v>
   <v type="logical" >  T  T  T </v>
   <v type="logical" >  T  T  T </v>
   <v type="logical" >  T  T  T </v>
   <v type="logical" >  T  T  T </v>
   <v type="logical" >  T  T  T </v>
   <v type="logical" >  T  T  T </v>
   <v type="logical" >  T  T  T </v>
   <v type="logical" >  T  T  T </v>
  </varray>
  <nose>
   <v>      -3.00000000       0.00000000       0.00010000       0.00010000 </v>
  </nose>
 </structure>
</modeling>
